#NP 10*10*20
#second line will be skipped

364     atoms
363     bonds
0   angles
0  dihedrals
0  impropers

44 atom types
2 bond types
0 angle types
0  dihedral types
0  improper types

-220.45 205.25 xlo xhi
-204.82 195.34 ylo yhi
-212.02 219.39 zlo zhi

Masses

1 131.200
2 57.050
3 128.200
4 101.100
5 156.200
6 71.080
7 115.100
8 129.100
9 163.200
10 99.070
11 113.200
12 128.100
13 186.200
14 147.200
15 87.080
16 137.100
17 114.100
18 97.120
19 103.100
20 113.200
21 165.030
22 1.000
23 39.360
24 17.115
25 38.460
26 30.330
27 46.860
28 21.324
29 34.530
30 38.730
31 48.960
32 29.721
33 33.960
34 38.430
35 55.860
36 44.160
37 26.124
38 41.130
39 34.230
40 29.136
41 30.930
42 33.960
43 49.509
44 0.300

Atoms

1 1000 9 0.0 45.460 5.027 69.393
2 1000 15 0.0 44.062 1.862 67.687
3 1000 18 0.0 42.633 -0.669 66.428
4 1000 4 0.0 43.979 -2.893 64.268
5 1000 15 0.0 45.284 -5.573 61.659
6 1000 18 0.0 47.204 -6.114 58.827
7 1000 15 0.0 48.765 -7.479 56.475
8 1000 9 0.0 51.312 -7.034 53.684
9 1000 15 0.0 52.478 -6.526 50.137
10 1000 18 0.0 54.079 -7.846 47.665
11 1000 4 0.0 54.714 -9.363 44.312
12 1000 15 0.0 55.245 -12.102 41.739
13 1000 18 0.0 54.933 -13.645 38.337
14 1000 15 0.0 53.041 -14.913 35.965
15 1000 9 0.0 49.609 -15.771 34.308
16 1000 15 0.0 48.450 -18.452 31.818
17 1000 18 0.0 44.730 -19.630 31.688
18 1000 4 0.0 41.736 -19.781 32.724
19 1000 15 0.0 37.951 -19.341 31.933
20 1000 18 0.0 34.528 -18.181 33.444
21 1000 15 0.0 34.199 -15.487 36.255
22 1000 9 0.0 31.072 -13.804 37.923
23 1000 15 0.0 29.210 -11.428 40.345
24 1000 18 0.0 28.853 -8.162 42.158
25 1000 4 0.0 28.749 -6.096 44.786
26 1000 15 0.0 26.742 -2.861 45.555
27 1000 18 0.0 27.264 0.665 46.975
28 1000 15 0.0 25.560 4.210 46.939
29 1000 9 0.0 24.268 7.168 47.155
30 1000 15 0.0 23.447 10.759 45.907
31 1000 18 0.0 24.299 14.495 45.531
32 1000 4 0.0 25.107 17.516 45.314
33 1000 15 0.0 24.630 20.430 42.742
34 1000 18 0.0 24.336 24.315 42.451
35 1000 15 0.0 24.424 27.007 39.616
36 1000 9 0.0 24.352 30.866 38.999
37 1000 15 0.0 23.190 32.804 36.329
38 1000 18 0.0 24.239 35.514 33.932
39 1000 4 0.0 24.863 38.125 32.367
40 1000 15 0.0 24.133 40.159 29.295
41 1000 18 0.0 24.346 41.641 25.722
42 1000 15 0.0 22.938 41.422 22.710
43 1000 9 0.0 22.296 43.116 19.886
44 1000 15 0.0 19.548 42.396 17.266
45 1000 18 0.0 20.292 42.240 13.478
46 1000 4 0.0 18.574 45.044 11.409
47 1000 15 0.0 17.201 45.340 7.814
48 1000 18 0.0 19.034 43.847 4.750
49 1000 15 0.0 18.390 41.061 3.502
50 1000 9 0.0 19.976 42.060 0.106
51 1000 15 0.0 17.928 41.625 -3.141
52 1000 18 0.0 20.315 38.805 -4.201
53 1000 4 0.0 22.990 37.327 -4.579
54 1000 15 0.0 22.416 34.149 -4.759
55 1000 18 0.0 25.490 31.877 -5.281
56 1000 15 0.0 27.487 30.218 -2.510
57 1000 9 0.0 29.202 28.609 -0.517
58 1000 15 0.0 29.283 25.956 2.220
59 1000 18 0.0 29.069 25.739 6.026
60 1000 4 0.0 32.163 25.943 6.809
61 1000 15 0.0 33.451 24.119 10.009
62 1000 18 0.0 34.534 22.670 12.865
63 1000 15 0.0 35.453 19.724 14.242
64 1000 9 0.0 37.584 18.104 15.781
65 1000 15 0.0 36.717 15.066 18.080
66 1000 18 0.0 37.717 13.517 21.501
67 1000 4 0.0 37.975 9.862 22.814
68 1000 15 0.0 35.671 7.875 25.219
69 1000 18 0.0 34.004 4.477 25.898
70 1000 15 0.0 31.763 2.445 24.675
71 1000 9 0.0 29.051 1.558 27.319
72 1000 15 0.0 27.818 -2.078 27.663
73 1000 18 0.0 24.670 -4.125 26.801
74 1000 4 0.0 21.124 -2.617 27.535
75 1000 15 0.0 19.375 0.699 26.607
76 1000 18 0.0 18.688 2.909 24.318
77 1000 15 0.0 15.087 4.100 25.171
78 1000 9 0.0 12.609 4.568 27.022
79 1000 15 0.0 10.979 6.442 24.045
80 1000 18 0.0 12.626 9.804 22.955
81 1000 4 0.0 12.920 11.069 19.561
82 1000 15 0.0 15.365 13.551 17.940
83 1000 18 0.0 15.938 14.480 15.022
84 1000 15 0.0 14.269 14.134 12.177
85 1000 9 0.0 11.667 15.092 10.834
86 1000 15 0.0 10.333 14.636 7.226
87 1000 18 0.0 11.892 14.416 3.704
88 1000 4 0.0 13.496 11.602 1.542
89 1000 15 0.0 17.148 12.668 1.817
90 1000 18 0.0 19.145 9.663 0.358
91 1000 15 0.0 20.397 8.633 -2.255
92 1000 9 0.0 19.740 9.522 -5.348
93 1000 15 0.0 23.453 10.245 -6.186
94 1000 18 0.0 26.293 7.815 -5.241
95 1000 4 0.0 27.742 5.357 -4.315
96 1000 15 0.0 29.466 5.565 -6.862
97 1000 18 0.0 32.098 6.140 -9.530
98 1000 15 0.0 34.748 4.922 -10.904
99 1000 9 0.0 36.922 5.453 -13.080
100 1000 15 0.0 37.705 5.231 -16.876
101 1000 18 0.0 38.162 5.379 -20.129
102 1000 4 0.0 40.557 5.967 -22.059
103 1000 15 0.0 40.367 6.618 -25.808
104 1000 18 0.0 38.372 9.708 -24.935
105 1000 15 0.0 38.003 12.396 -27.691
106 1000 9 0.0 39.163 14.704 -29.503
107 1000 15 0.0 36.519 15.845 -32.107
108 1000 18 0.0 33.755 16.859 -33.530
109 1000 4 0.0 32.241 17.966 -35.977
110 1000 15 0.0 29.418 15.560 -34.853
111 1000 18 0.0 26.299 16.260 -34.519
112 1000 15 0.0 23.486 15.090 -35.261
113 1000 9 0.0 20.478 13.162 -33.702
114 1000 15 0.0 18.649 12.617 -36.369
115 1000 18 0.0 17.801 10.019 -34.917
116 1000 4 0.0 16.136 12.059 -32.039
117 1000 15 0.0 15.950 8.787 -30.007
118 1000 18 0.0 14.872 8.929 -27.110
119 1000 15 0.0 12.933 12.164 -26.429
120 1000 9 0.0 9.233 11.858 -25.387
121 1000 15 0.0 7.032 13.801 -27.441
122 1000 18 0.0 5.584 11.107 -26.929
123 1000 4 0.0 2.483 8.867 -26.884
124 1000 15 0.0 3.593 5.671 -28.708
125 1000 18 0.0 4.243 2.670 -27.871
126 1000 15 0.0 1.083 2.877 -25.607
127 1000 9 0.0 -1.139 0.239 -23.662
128 1000 15 0.0 -4.235 0.053 -26.060
129 1000 18 0.0 -7.165 -2.367 -25.538
130 1000 4 0.0 -8.461 -5.041 -26.138
131 1000 15 0.0 -6.279 -7.883 -27.587
132 1000 18 0.0 -3.919 -8.361 -24.564
133 1000 15 0.0 -6.071 -8.672 -21.366
134 1000 9 0.0 -6.633 -10.973 -19.022
135 1000 15 0.0 -10.185 -9.657 -18.158
136 1000 18 0.0 -11.784 -12.225 -20.528
137 1000 4 0.0 -13.614 -15.608 -19.957
138 1000 15 0.0 -10.977 -17.291 -22.179
139 1000 18 0.0 -8.489 -19.352 -20.096
140 1000 15 0.0 -8.988 -22.198 -17.510
141 1000 9 0.0 -8.929 -24.804 -15.691
142 1000 15 0.0 -7.480 -27.307 -13.115
143 1000 18 0.0 -3.926 -28.815 -12.856
144 1000 4 0.0 -0.967 -27.299 -14.858
145 1000 15 0.0 1.689 -29.346 -16.746
146 1000 18 0.0 4.445 -29.083 -19.428
147 1000 15 0.0 6.982 -26.612 -20.121
148 1000 9 0.0 9.482 -27.449 -22.294
149 1000 15 0.0 12.851 -26.230 -21.435
150 1000 18 0.0 15.730 -24.474 -21.252
151 1000 4 0.0 18.616 -24.136 -22.196
152 1000 15 0.0 21.706 -22.693 -22.188
153 1000 18 0.0 24.191 -23.738 -24.956
154 1000 15 0.0 24.928 -23.627 -28.532
155 1000 9 0.0 25.164 -26.485 -30.736
156 1000 15 0.0 27.142 -25.089 -33.616
157 1000 18 0.0 27.868 -28.818 -34.007
158 1000 4 0.0 26.331 -31.170 -36.665
159 1000 15 0.0 24.291 -34.436 -36.459
160 1000 18 0.0 21.619 -36.016 -36.951
161 1000 15 0.0 18.114 -36.554 -38.533
162 1000 9 0.0 15.420 -38.708 -36.725
163 1000 15 0.0 12.897 -41.235 -38.240
164 1000 18 0.0 10.249 -43.156 -36.128
165 1000 4 0.0 6.411 -42.960 -35.525
166 1000 15 0.0 4.734 -44.542 -32.404
167 1000 18 0.0 2.047 -43.632 -29.747
168 1000 15 0.0 -0.215 -41.310 -28.719
169 1000 9 0.0 -1.475 -39.754 -25.388
170 1000 15 0.0 -2.651 -40.640 -21.801
171 1000 18 0.0 -1.309 -42.872 -19.002
172 1000 4 0.0 -1.399 -46.745 -18.696
173 1000 15 0.0 -2.614 -46.332 -15.054
174 1000 18 0.0 -4.672 -48.214 -13.525
175 1000 15 0.0 -4.918 -50.061 -10.943
176 1000 9 0.0 -6.873 -51.647 -9.021
177 1000 15 0.0 -9.319 -51.840 -11.190
178 1000 18 0.0 -9.777 -52.867 -14.395
179 1000 4 0.0 -11.267 -53.492 -17.119
180 1000 15 0.0 -13.027 -52.012 -20.314
181 1000 18 0.0 -13.784 -50.576 -23.242
182 1000 15 0.0 -16.003 -49.207 -25.333
183 1000 9 0.0 -17.812 -46.528 -27.520
184 1000 15 0.0 -21.380 -48.011 -27.096
185 1000 18 0.0 -23.753 -48.329 -24.055
186 1000 4 0.0 -24.459 -47.838 -20.828
187 1000 15 0.0 -25.483 -46.515 -17.390
188 1000 18 0.0 -24.665 -44.401 -14.241
189 1000 15 0.0 -24.319 -41.051 -13.946
190 1000 9 0.0 -21.995 -39.355 -11.305
191 1000 15 0.0 -22.436 -36.718 -8.489
192 1000 18 0.0 -19.045 -35.686 -6.821
193 1000 4 0.0 -16.928 -32.399 -6.978
194 1000 15 0.0 -15.509 -31.289 -3.510
195 1000 18 0.0 -12.657 -29.828 -2.027
196 1000 15 0.0 -11.390 -26.359 -0.954
197 1000 9 0.0 -7.803 -25.906 0.444
198 1000 15 0.0 -7.697 -25.007 4.146
199 1000 18 0.0 -5.994 -27.414 6.700
200 1000 4 0.0 -4.186 -30.607 5.324
201 1000 15 0.0 -2.984 -33.784 7.232
202 1000 18 0.0 -0.478 -36.717 7.356
203 1000 15 0.0 1.308 -39.544 5.323
204 1000 9 0.0 3.927 -41.708 5.228
205 1000 15 0.0 6.413 -44.570 4.256
206 1000 18 0.0 6.087 -45.041 0.403
207 1000 4 0.0 8.100 -47.455 -1.672
208 1000 15 0.0 9.586 -50.619 -3.360
209 1000 18 0.0 10.502 -52.254 -6.769
210 1000 15 0.0 10.409 -51.957 -10.599
211 1000 9 0.0 10.865 -53.235 -13.642
212 1000 15 0.0 10.411 -54.822 -17.037
213 1000 18 0.0 9.912 -53.790 -20.683
214 1000 4 0.0 10.204 -54.718 -23.769
215 1000 15 0.0 10.072 -54.680 -27.621
216 1000 18 0.0 9.323 -52.845 -30.885
217 1000 15 0.0 8.570 -50.818 -33.424
218 1000 9 0.0 9.856 -50.405 -36.366
219 1000 15 0.0 10.265 -48.293 -39.513
220 1000 18 0.0 8.859 -47.628 -42.939
221 1000 4 0.0 9.283 -44.451 -45.162
222 1000 15 0.0 7.633 -43.176 -48.482
223 1000 18 0.0 5.239 -40.295 -49.372
224 1000 15 0.0 1.542 -39.690 -48.772
225 1000 9 0.0 -0.779 -38.506 -51.148
226 1000 15 0.0 -2.982 -39.619 -49.141
227 1000 18 0.0 -6.744 -38.959 -49.694
228 1000 4 0.0 -8.468 -41.855 -51.577
229 1000 15 0.0 -11.283 -43.123 -52.665
230 1000 18 0.0 -13.131 -45.663 -53.240
231 1000 15 0.0 -11.052 -47.133 -54.918
232 1000 9 0.0 -7.560 -46.383 -56.503
233 1000 15 0.0 -4.631 -46.990 -54.233
234 1000 18 0.0 -2.295 -44.133 -55.461
235 1000 4 0.0 1.093 -42.416 -54.541
236 1000 15 0.0 3.155 -39.179 -54.056
237 1000 18 0.0 3.513 -35.722 -52.311
238 1000 15 0.0 3.305 -33.229 -50.080
239 1000 9 0.0 3.509 -30.216 -49.280
240 1000 15 0.0 2.251 -28.676 -45.916
241 1000 18 0.0 1.767 -25.269 -44.039
242 1000 4 0.0 0.922 -22.281 -43.512
243 1000 15 0.0 -0.414 -21.227 -40.484
244 1000 18 0.0 -2.576 -18.206 -39.330
245 1000 15 0.0 -5.129 -17.269 -37.471
246 1000 9 0.0 -8.820 -16.966 -36.272
247 1000 15 0.0 -9.323 -13.320 -35.065
248 1000 18 0.0 -12.279 -10.776 -35.021
249 1000 4 0.0 -14.799 -9.151 -35.852
250 1000 15 0.0 -18.577 -9.575 -35.656
251 1000 18 0.0 -21.423 -7.938 -33.709
252 1000 15 0.0 -23.518 -6.470 -31.584
253 1000 9 0.0 -26.573 -7.311 -30.474
254 1000 15 0.0 -27.932 -6.046 -27.776
255 1000 18 0.0 -31.148 -7.477 -26.251
256 1000 4 0.0 -33.425 -9.535 -26.150
257 1000 15 0.0 -34.035 -12.671 -24.074
258 1000 18 0.0 -35.730 -15.641 -25.836
259 1000 15 0.0 -37.887 -18.622 -24.659
260 1000 9 0.0 -37.879 -22.063 -26.424
261 1000 15 0.0 -41.574 -22.758 -27.378
262 1000 18 0.0 -40.597 -25.295 -30.143
263 1000 4 0.0 -40.048 -27.660 -32.181
264 1000 15 0.0 -41.426 -30.338 -34.634
265 1000 18 0.0 -39.943 -32.269 -37.642
266 1000 15 0.0 -37.443 -33.186 -39.731
267 1000 9 0.0 -36.105 -34.827 -42.063
268 1000 15 0.0 -33.340 -35.800 -44.580
269 1000 18 0.0 -31.195 -35.335 -47.546
270 1000 4 0.0 -29.330 -35.322 -50.250
271 1000 15 0.0 -27.083 -34.681 -53.381
272 1000 18 0.0 -25.996 -32.587 -56.382
273 1000 15 0.0 -25.020 -29.216 -57.919
274 1000 9 0.0 -24.646 -27.000 -60.161
275 1000 15 0.0 -24.489 -23.352 -61.317
276 1000 18 0.0 -27.491 -21.186 -62.019
277 1000 4 0.0 -27.730 -17.486 -60.952
278 1000 15 0.0 -31.080 -15.541 -61.510
279 1000 18 0.0 -33.962 -14.458 -60.466
280 1000 15 0.0 -35.534 -11.900 -58.708
281 1000 9 0.0 -39.224 -11.225 -58.273
282 1000 15 0.0 -40.206 -7.487 -58.548
283 1000 18 0.0 -39.838 -4.349 -57.595
284 1000 4 0.0 -41.211 -1.532 -57.966
285 1000 15 0.0 -39.976 1.651 -56.102
286 1000 18 0.0 -40.737 3.873 -53.593
287 1000 15 0.0 -38.534 6.168 -52.567
288 1000 9 0.0 -37.711 9.156 -52.448
289 1000 15 0.0 -36.032 10.558 -49.227
290 1000 18 0.0 -36.391 14.171 -47.860
291 1000 4 0.0 -34.689 14.616 -44.378
292 1000 15 0.0 -33.063 17.807 -43.007
293 1000 18 0.0 -32.069 19.469 -40.255
294 1000 15 0.0 -29.209 21.000 -38.212
295 1000 9 0.0 -28.474 22.848 -35.607
296 1000 15 0.0 -26.319 23.762 -33.155
297 1000 18 0.0 -27.728 26.993 -31.434
298 1000 4 0.0 -29.487 29.403 -30.424
299 1000 15 0.0 -32.007 31.585 -28.447
300 1000 18 0.0 -35.518 31.847 -26.847
301 1000 15 0.0 -38.845 29.928 -26.260
302 1000 9 0.0 -41.795 28.820 -26.536
303 1000 15 0.0 -44.680 26.343 -27.361
304 1000 18 0.0 -45.793 23.396 -29.637
305 1000 4 0.0 -45.286 19.650 -28.737
306 1000 15 0.0 -47.041 16.374 -30.000
307 1000 18 0.0 -47.257 13.814 -32.446
308 1000 15 0.0 -46.492 10.082 -33.141
309 1000 9 0.0 -46.845 7.137 -34.789
310 1000 15 0.0 -46.805 4.090 -36.643
311 1000 18 0.0 -45.834 0.452 -37.669
312 1000 4 0.0 -46.703 -2.524 -39.670
313 1000 15 0.0 -47.435 -5.828 -38.840
314 1000 18 0.0 -47.476 -9.395 -39.968
315 1000 15 0.0 -49.915 -12.016 -38.421
316 1000 9 0.0 -51.642 -14.754 -37.815
317 1000 15 0.0 -53.486 -17.178 -36.283
318 1000 18 0.0 -56.280 -18.494 -33.917
319 1000 4 0.0 -58.160 -19.947 -31.862
320 1000 15 0.0 -60.621 -20.259 -28.963
321 1000 18 0.0 -62.367 -20.540 -25.506
322 1000 15 0.0 -63.071 -18.564 -22.910
323 1000 9 0.0 -64.879 -17.611 -20.400
324 1000 15 0.0 -66.648 -16.852 -16.916
325 1000 18 0.0 -65.933 -14.568 -14.585
326 1000 4 0.0 -67.132 -12.438 -12.573
327 1000 15 0.0 -68.474 -11.145 -9.140
328 1000 18 0.0 -68.585 -8.741 -6.585
329 1000 15 0.0 -68.913 -7.258 -3.820
330 1000 9 0.0 -67.770 -4.642 -1.191
331 1000 15 0.0 -69.992 -3.584 1.801
332 1000 18 0.0 -70.037 -1.242 4.029
333 1000 4 0.0 -69.219 1.387 6.776
334 1000 15 0.0 -70.452 2.137 10.355
335 1000 18 0.0 -69.743 4.389 13.042
336 1000 15 0.0 -69.014 4.528 16.853
337 1000 9 0.0 -65.703 5.074 18.779
338 1000 15 0.0 -65.467 4.791 22.669
339 1000 18 0.0 -64.263 2.558 25.472
340 1000 4 0.0 -64.596 0.282 27.610
341 1000 15 0.0 -64.417 -2.795 29.924
342 1000 18 0.0 -65.378 -6.264 30.746
343 1000 15 0.0 -66.702 -8.692 32.153
344 1000 9 0.0 -67.889 -12.077 33.498
345 1000 15 0.0 -66.948 -13.214 36.264
346 1000 18 0.0 -68.432 -10.243 38.263
347 1000 4 0.0 -68.970 -7.644 39.955
348 1000 15 0.0 -70.334 -4.062 40.136
349 1000 18 0.0 -70.035 -0.300 40.653
350 1000 15 0.0 -68.147 2.687 39.167
351 1000 9 0.0 -68.332 6.163 40.875
352 1000 15 0.0 -66.472 9.569 40.823
353 1000 18 0.0 -62.772 10.703 40.604
354 1000 4 0.0 -60.111 12.413 40.492
355 1000 15 0.0 -57.977 15.264 42.021
356 1000 18 0.0 -54.165 15.588 42.569
357 1000 15 0.0 -51.576 16.236 44.299
358 1000 9 0.0 -47.975 15.933 45.619
359 1000 15 0.0 -44.854 14.398 47.241
360 1000 18 0.0 -42.318 12.456 47.806
361 1000 4 0.0 -39.178 10.244 48.457
362 1000 15 0.0 -37.225 7.485 47.600
363 1000 18 0.0 -34.642 6.292 44.970
364 1000 15 0.0 -32.719 4.413 43.289

Bonds

1 1 1 2
2 1 2 3
3 1 3 4
4 1 4 5
5 1 5 6
6 1 6 7
7 1 7 8
8 1 8 9
9 1 9 10
10 1 10 11
11 1 11 12
12 1 12 13
13 1 13 14
14 1 14 15
15 1 15 16
16 1 16 17
17 1 17 18
18 1 18 19
19 1 19 20
20 1 20 21
21 1 21 22
22 1 22 23
23 1 23 24
24 1 24 25
25 1 25 26
26 1 26 27
27 1 27 28
28 1 28 29
29 1 29 30
30 1 30 31
31 1 31 32
32 1 32 33
33 1 33 34
34 1 34 35
35 1 35 36
36 1 36 37
37 1 37 38
38 1 38 39
39 1 39 40
40 1 40 41
41 1 41 42
42 1 42 43
43 1 43 44
44 1 44 45
45 1 45 46
46 1 46 47
47 1 47 48
48 1 48 49
49 1 49 50
50 1 50 51
51 1 51 52
52 1 52 53
53 1 53 54
54 1 54 55
55 1 55 56
56 1 56 57
57 1 57 58
58 1 58 59
59 1 59 60
60 1 60 61
61 1 61 62
62 1 62 63
63 1 63 64
64 1 64 65
65 1 65 66
66 1 66 67
67 1 67 68
68 1 68 69
69 1 69 70
70 1 70 71
71 1 71 72
72 1 72 73
73 1 73 74
74 1 74 75
75 1 75 76
76 1 76 77
77 1 77 78
78 1 78 79
79 1 79 80
80 1 80 81
81 1 81 82
82 1 82 83
83 1 83 84
84 1 84 85
85 1 85 86
86 1 86 87
87 1 87 88
88 1 88 89
89 1 89 90
90 1 90 91
91 1 91 92
92 1 92 93
93 1 93 94
94 1 94 95
95 1 95 96
96 1 96 97
97 1 97 98
98 1 98 99
99 1 99 100
100 1 100 101
101 1 101 102
102 1 102 103
103 1 103 104
104 1 104 105
105 1 105 106
106 1 106 107
107 1 107 108
108 1 108 109
109 1 109 110
110 1 110 111
111 1 111 112
112 1 112 113
113 1 113 114
114 1 114 115
115 1 115 116
116 1 116 117
117 1 117 118
118 1 118 119
119 1 119 120
120 1 120 121
121 1 121 122
122 1 122 123
123 1 123 124
124 1 124 125
125 1 125 126
126 1 126 127
127 1 127 128
128 1 128 129
129 1 129 130
130 1 130 131
131 1 131 132
132 1 132 133
133 1 133 134
134 1 134 135
135 1 135 136
136 1 136 137
137 1 137 138
138 1 138 139
139 1 139 140
140 1 140 141
141 1 141 142
142 1 142 143
143 1 143 144
144 1 144 145
145 1 145 146
146 1 146 147
147 1 147 148
148 1 148 149
149 1 149 150
150 1 150 151
151 1 151 152
152 1 152 153
153 1 153 154
154 1 154 155
155 1 155 156
156 1 156 157
157 1 157 158
158 1 158 159
159 1 159 160
160 1 160 161
161 1 161 162
162 1 162 163
163 1 163 164
164 1 164 165
165 1 165 166
166 1 166 167
167 1 167 168
168 1 168 169
169 1 169 170
170 1 170 171
171 1 171 172
172 1 172 173
173 1 173 174
174 1 174 175
175 1 175 176
176 1 176 177
177 1 177 178
178 1 178 179
179 1 179 180
180 1 180 181
181 1 181 182
182 1 182 183
183 1 183 184
184 1 184 185
185 1 185 186
186 1 186 187
187 1 187 188
188 1 188 189
189 1 189 190
190 1 190 191
191 1 191 192
192 1 192 193
193 1 193 194
194 1 194 195
195 1 195 196
196 1 196 197
197 1 197 198
198 1 198 199
199 1 199 200
200 1 200 201
201 1 201 202
202 1 202 203
203 1 203 204
204 1 204 205
205 1 205 206
206 1 206 207
207 1 207 208
208 1 208 209
209 1 209 210
210 1 210 211
211 1 211 212
212 1 212 213
213 1 213 214
214 1 214 215
215 1 215 216
216 1 216 217
217 1 217 218
218 1 218 219
219 1 219 220
220 1 220 221
221 1 221 222
222 1 222 223
223 1 223 224
224 1 224 225
225 1 225 226
226 1 226 227
227 1 227 228
228 1 228 229
229 1 229 230
230 1 230 231
231 1 231 232
232 1 232 233
233 1 233 234
234 1 234 235
235 1 235 236
236 1 236 237
237 1 237 238
238 1 238 239
239 1 239 240
240 1 240 241
241 1 241 242
242 1 242 243
243 1 243 244
244 1 244 245
245 1 245 246
246 1 246 247
247 1 247 248
248 1 248 249
249 1 249 250
250 1 250 251
251 1 251 252
252 1 252 253
253 1 253 254
254 1 254 255
255 1 255 256
256 1 256 257
257 1 257 258
258 1 258 259
259 1 259 260
260 1 260 261
261 1 261 262
262 1 262 263
263 1 263 264
264 1 264 265
265 1 265 266
266 1 266 267
267 1 267 268
268 1 268 269
269 1 269 270
270 1 270 271
271 1 271 272
272 1 272 273
273 1 273 274
274 1 274 275
275 1 275 276
276 1 276 277
277 1 277 278
278 1 278 279
279 1 279 280
280 1 280 281
281 1 281 282
282 1 282 283
283 1 283 284
284 1 284 285
285 1 285 286
286 1 286 287
287 1 287 288
288 1 288 289
289 1 289 290
290 1 290 291
291 1 291 292
292 1 292 293
293 1 293 294
294 1 294 295
295 1 295 296
296 1 296 297
297 1 297 298
298 1 298 299
299 1 299 300
300 1 300 301
301 1 301 302
302 1 302 303
303 1 303 304
304 1 304 305
305 1 305 306
306 1 306 307
307 1 307 308
308 1 308 309
309 1 309 310
310 1 310 311
311 1 311 312
312 1 312 313
313 1 313 314
314 1 314 315
315 1 315 316
316 1 316 317
317 1 317 318
318 1 318 319
319 1 319 320
320 1 320 321
321 1 321 322
322 1 322 323
323 1 323 324
324 1 324 325
325 1 325 326
326 1 326 327
327 1 327 328
328 1 328 329
329 1 329 330
330 1 330 331
331 1 331 332
332 1 332 333
333 1 333 334
334 1 334 335
335 1 335 336
336 1 336 337
337 1 337 338
338 1 338 339
339 1 339 340
340 1 340 341
341 1 341 342
342 1 342 343
343 1 343 344
344 1 344 345
345 1 345 346
346 1 346 347
347 1 347 348
348 1 348 349
349 1 349 350
350 1 350 351
351 1 351 352
352 1 352 353
353 1 353 354
354 1 354 355
355 1 355 356
356 1 356 357
357 1 357 358
358 1 358 359
359 1 359 360
360 1 360 361
361 1 361 362
362 1 362 363
363 1 363 364
