#NP 10*10*20
#second line will be skipped

200     atoms
199     bonds
0   angles
0  dihedrals
0  impropers

44 atom types
2 bond types
0 angle types
0  dihedral types
0  improper types

-206.13 194.33 xlo xhi
-226.78 205.74 ylo yhi
-190.47 209.91 zlo zhi

Masses

1 131.200
2 57.050
3 128.200
4 101.100
5 156.200
6 71.080
7 115.100
8 129.100
9 163.200
10 99.070
11 113.200
12 128.100
13 186.200
14 147.200
15 87.080
16 137.100
17 114.100
18 97.120
19 103.100
20 113.200
21 165.030
22 1.000
23 39.360
24 17.115
25 38.460
26 30.330
27 46.860
28 21.324
29 34.530
30 38.730
31 48.960
32 29.721
33 33.960
34 38.430
35 55.860
36 44.160
37 26.124
38 41.130
39 34.230
40 29.136
41 30.930
42 33.960
43 49.509
44 0.300

Atoms

1 1 15 0.0 23.229 -50.211 30.486 
2 1 19 0.0 22.260 -51.986 27.218 
3 1 15 0.0 19.862 -54.819 26.138 
4 1 6 0.0 16.345 -54.574 27.346 
5 1 12 0.0 13.810 -53.753 24.554 
6 1 6 0.0 11.079 -51.168 25.201 
7 1 8 -1.0 9.994 -48.886 22.305 
8 1 18 0.0 10.040 -45.036 22.487 
9 1 18 0.0 6.430 -43.714 21.965 
10 1 8 -1.0 5.443 -41.793 18.771 
11 1 18 0.0 5.422 -37.925 18.364 
12 1 17 0.0 2.503 -36.645 20.513 
13 1 8 -1.0 0.791 -33.877 18.308 
14 1 9 0.0 -1.972 -31.701 19.953 
15 1 7 -1.0 -0.989 -29.525 22.737 
16 1 20 0.0 -2.120 -25.918 22.023 
17 1 18 0.0 -1.553 -23.521 24.977 
18 1 18 0.0 -3.453 -20.144 24.931 
19 1 6 0.0 -2.017 -17.481 22.550 
20 1 15 0.0 -1.387 -14.905 25.396 
21 1 16 0.0 2.319 -15.613 26.280 
22 1 10 0.0 5.686 -15.380 24.352 
23 1 9 0.0 6.357 -12.072 22.642 
24 1 15 0.0 10.178 -11.981 22.363 
25 1 11 0.0 12.595 -11.512 19.387 
26 1 3 1.0 12.102 -12.552 15.686 
27 1 18 0.0 13.934 -14.999 13.511 
28 1 3 1.0 13.466 -14.784 9.688 
29 1 5 1.0 11.406 -17.597 8.081 
30 1 10 0.0 13.990 -19.178 5.821 
31 1 2 0.0 11.900 -21.925 4.170 
32 1 6 0.0 13.807 -25.210 4.616 
33 1 2 0.0 14.882 -27.011 1.437 
34 1 14 0.0 14.254 -30.773 1.672 
35 1 18 0.0 17.424 -32.941 1.416 
36 1 3 1.0 17.147 -35.123 -1.701 
37 1 2 0.0 19.144 -37.079 -3.021 
38 1 15 0.0 19.451 -38.430 -6.575 
39 1 19 0.0 16.650 -40.223 -8.428 
40 1 18 0.0 15.187 -39.174 -11.844 
41 1 14 0.0 11.372 -38.808 -11.914 
42 1 12 0.0 9.553 -39.999 -15.032 
43 1 4 0.0 7.053 -38.174 -17.270 
44 1 6 0.0 3.256 -38.468 -16.722 
45 1 4 0.0 3.043 -40.717 -19.880 
46 1 8 -1.0 5.518 -43.359 -18.521 
47 1 11 0.0 3.427 -43.461 -15.282 
48 1 1 0.0 0.380 -44.718 -17.340 
49 1 8 -1.0 2.108 -47.448 -19.464 
50 1 4 0.0 3.518 -49.345 -16.389 
51 1 4 0.0 -0.020 -50.453 -15.200 
52 1 5 1.0 -0.209 -53.261 -17.838 
53 1 20 0.0 1.926 -56.495 -17.818 
54 1 5 1.0 1.553 -58.258 -14.475 
55 1 8 -1.0 -1.367 -60.729 -14.643 
56 1 12 0.0 -0.957 -64.534 -15.245 
57 1 6 0.0 -0.812 -67.120 -13.368 
58 1 18 0.0 -2.430 -69.180 -10.839 
59 1 12 0.0 -3.804 -70.894 -7.604 
60 1 18 0.0 -4.853 -73.917 -6.194 
61 1 8 -1.0 -7.096 -74.611 -3.291 
62 1 5 1.0 -8.210 -76.531 -0.206 
63 1 2 0.0 -10.906 -76.479 1.913 
64 1 2 0.0 -14.059 -76.565 3.445 
65 1 8 -1.0 -16.664 -76.779 5.701 
66 1 16 0.0 -19.545 -75.829 7.562 
67 1 8 -1.0 -22.472 -73.944 8.157 
68 1 18 0.0 -25.232 -73.514 10.975 
69 1 18 0.0 -28.408 -72.804 12.224 
70 1 15 0.0 -31.658 -72.407 14.280 
71 1 5 1.0 -34.452 -69.832 15.206 
72 1 18 0.0 -37.492 -69.024 16.312 
73 1 19 0.0 -40.468 -66.961 17.862 
74 1 2 0.0 -42.344 -64.977 19.628 
75 1 11 0.0 -44.916 -62.936 20.671 
76 1 11 0.0 -47.760 -60.596 20.877 
77 1 7 -1.0 -49.783 -58.359 22.161 
78 1 8 -1.0 -52.275 -55.536 23.408 
79 1 7 -1.0 -53.740 -52.826 24.965 
80 1 2 0.0 -55.059 -49.676 27.010 
81 1 15 0.0 -55.729 -46.454 27.984 
82 1 8 -1.0 -56.131 -43.764 29.905 
83 1 18 0.0 -54.977 -40.408 31.715 
84 1 11 0.0 -55.419 -37.620 34.482 
85 1 18 0.0 -54.411 -35.778 37.133 
86 1 2 0.0 -52.451 -34.294 40.170 
87 1 18 0.0 -53.048 -31.453 42.749 
88 1 5 1.0 -51.500 -28.137 43.941 
89 1 2 0.0 -49.206 -26.885 46.702 
90 1 8 -1.0 -48.656 -23.055 47.010 
91 1 10 0.0 -47.404 -20.355 49.315 
92 1 18 0.0 -44.709 -17.530 49.374 
93 1 2 0.0 -43.370 -14.972 51.907 
94 1 2 0.0 -40.655 -13.824 54.389 
95 1 15 0.0 -39.302 -10.233 54.877 
96 1 6 0.0 -37.547 -8.342 57.748 
97 1 16 0.0 -36.442 -5.207 57.541 
98 1 9 0.0 -34.490 -2.851 59.911 
99 1 2 0.0 -33.568 0.285 59.628 
100 1 2 0.0 -32.289 3.916 58.862 
101 1 18 0.0 -31.847 7.027 58.720 
102 1 15 0.0 -30.127 10.507 58.098 
103 1 18 0.0 -29.176 13.566 58.062 
104 1 8 -1.0 -27.044 16.551 56.811 
105 1 3 1.0 -24.887 19.408 57.327 
106 1 3 1.0 -23.183 21.801 54.815 
107 1 6 0.0 -20.282 23.608 53.293 
108 1 3 1.0 -17.179 25.884 52.944 
109 1 15 0.0 -13.836 25.624 51.663 
110 1 15 0.0 -10.410 26.703 52.128 
111 1 15 0.0 -6.836 25.952 50.854 
112 1 2 0.0 -4.209 23.448 52.133 
113 1 2 0.0 -1.689 21.394 50.050 
114 1 15 0.0 1.036 18.707 49.614 
115 1 15 0.0 1.904 15.308 49.357 
116 1 11 0.0 3.379 13.502 46.263 
117 1 6 0.0 3.576 9.906 45.028 
118 1 3 1.0 5.223 10.292 41.545 
119 1 2 0.0 6.315 6.976 40.007 
120 1 5 1.0 9.524 7.685 37.980 
121 1 6 0.0 9.092 6.654 34.335 
122 1 15 0.0 12.273 5.023 32.930 
123 1 3 1.0 14.851 7.293 31.152 
124 1 3 1.0 14.310 4.851 28.182 
125 1 12 0.0 10.493 5.451 28.059 
126 1 12 0.0 11.067 9.228 28.325 
127 1 11 0.0 13.606 9.093 25.415 
128 1 11 0.0 11.067 7.033 23.344 
129 1 6 0.0 8.298 9.607 24.088 
130 1 4 0.0 10.684 12.498 23.129 
131 1 6 0.0 11.540 10.625 19.868 
132 1 6 0.0 7.815 10.066 19.026 
133 1 16 0.0 7.191 13.806 19.740 
134 1 3 1.0 10.022 14.766 17.274 
135 1 7 -1.0 8.818 12.398 14.493 
136 1 15 0.0 5.185 13.680 14.831 
137 1 12 0.0 6.383 17.359 14.822 
138 1 15 0.0 8.016 16.906 11.337 
139 1 20 0.0 4.631 15.861 9.809 
140 1 6 0.0 2.661 18.667 11.581 
141 1 5 1.0 4.978 21.436 10.160 
142 1 14 0.0 4.143 20.342 6.564 
143 1 14 0.0 0.401 21.145 7.056 
144 1 19 0.0 0.776 24.566 8.802 
145 1 5 1.0 3.001 26.092 6.002 
146 1 5 1.0 0.002 27.202 3.788 
147 1 10 0.0 -1.178 30.433 5.587 
148 1 8 -1.0 1.479 33.068 4.686 
149 1 15 0.0 0.370 35.616 2.031 
150 1 18 0.0 2.979 38.317 1.149 
151 1 6 0.0 1.902 41.878 2.047 
152 1 11 0.0 4.331 44.768 1.433 
153 1 11 0.0 4.675 48.047 3.034 
154 1 6 0.0 7.312 50.091 4.934 
155 1 15 0.0 7.714 52.658 7.741 
156 1 6 0.0 10.885 53.026 9.890 
157 1 18 0.0 12.276 53.431 13.294 
158 1 8 -1.0 13.275 54.561 16.836 
159 1 6 0.0 16.366 53.606 18.938 
160 1 8 -1.0 18.315 53.400 22.348 
161 1 2 0.0 21.314 52.160 23.249 
162 1 6 0.0 24.562 51.818 23.845 
163 1 19 0.0 28.311 51.192 22.843 
164 1 18 0.0 31.635 50.955 22.373 
165 1 15 0.0 35.440 50.077 21.802 
166 1 19 0.0 37.935 49.690 19.772 
167 1 8 -1.0 40.343 49.571 16.662 
168 1 2 0.0 41.775 48.627 13.721 
169 1 10 0.0 43.078 49.035 10.623 
170 1 12 0.0 44.046 48.986 6.750 
171 1 2 0.0 44.333 48.195 3.599 
172 1 18 0.0 42.836 48.198 0.012 
173 1 18 0.0 42.295 46.684 -3.600 
174 1 1 0.0 42.676 47.069 -7.491 
175 1 6 0.0 41.398 46.720 -10.581 
176 1 18 0.0 39.513 45.664 -13.891 
177 1 8 -1.0 40.061 45.636 -17.732 
178 1 3 1.0 37.891 45.332 -20.934 
179 1 9 0.0 38.301 44.293 -24.549 
180 1 4 0.0 36.164 45.875 -27.341 
181 1 2 0.0 35.290 45.943 -31.098 
182 1 8 -1.0 33.735 45.642 -33.802 
183 1 8 -1.0 30.847 45.957 -36.399 
184 1 7 -1.0 28.391 45.291 -38.502 
185 1 2 0.0 25.101 44.043 -40.206 
186 1 6 0.0 21.600 45.763 -40.436 
187 1 2 0.0 17.879 44.908 -40.468 
188 1 2 0.0 14.906 45.138 -39.467 
189 1 16 0.0 11.265 46.113 -38.435 
190 1 15 0.0 9.266 46.945 -35.210 
191 1 18 0.0 6.813 48.115 -33.273 
192 1 6 0.0 4.753 48.910 -30.662 
193 1 18 0.0 3.210 48.688 -27.084 
194 1 18 0.0 1.787 51.137 -24.485 
195 1 12 0.0 1.377 52.026 -21.204 
196 1 4 0.0 -0.152 53.758 -18.911 
197 1 8 -1.0 -1.959 54.357 -16.024 
198 1 8 -1.0 -3.459 54.613 -12.411 
199 1 19 0.0 -6.653 55.741 -10.704 
200 1 11 0.0 -8.674 55.439 -7.433 

Bonds

1 1 1 2 
2 1 2 3 
3 1 3 4 
4 1 4 5 
5 1 5 6 
6 1 6 7 
7 1 7 8 
8 1 8 9 
9 1 9 10 
10 1 10 11 
11 1 11 12 
12 1 12 13 
13 1 13 14 
14 1 14 15 
15 1 15 16 
16 1 16 17 
17 1 17 18 
18 1 18 19 
19 1 19 20 
20 1 20 21 
21 1 21 22 
22 1 22 23 
23 1 23 24 
24 1 24 25 
25 1 25 26 
26 1 26 27 
27 1 27 28 
28 1 28 29 
29 1 29 30 
30 1 30 31 
31 1 31 32 
32 1 32 33 
33 1 33 34 
34 1 34 35 
35 1 35 36 
36 1 36 37 
37 1 37 38 
38 1 38 39 
39 1 39 40 
40 1 40 41 
41 1 41 42 
42 1 42 43 
43 1 43 44 
44 1 44 45 
45 1 45 46 
46 1 46 47 
47 1 47 48 
48 1 48 49 
49 1 49 50 
50 1 50 51 
51 1 51 52 
52 1 52 53 
53 1 53 54 
54 1 54 55 
55 1 55 56 
56 1 56 57 
57 1 57 58 
58 1 58 59 
59 1 59 60 
60 1 60 61 
61 1 61 62 
62 1 62 63 
63 1 63 64 
64 1 64 65 
65 1 65 66 
66 1 66 67 
67 1 67 68 
68 1 68 69 
69 1 69 70 
70 1 70 71 
71 1 71 72 
72 1 72 73 
73 1 73 74 
74 1 74 75 
75 1 75 76 
76 1 76 77 
77 1 77 78 
78 1 78 79 
79 1 79 80 
80 1 80 81 
81 1 81 82 
82 1 82 83 
83 1 83 84 
84 1 84 85 
85 1 85 86 
86 1 86 87 
87 1 87 88 
88 1 88 89 
89 1 89 90 
90 1 90 91 
91 1 91 92 
92 1 92 93 
93 1 93 94 
94 1 94 95 
95 1 95 96 
96 1 96 97 
97 1 97 98 
98 1 98 99 
99 1 99 100 
100 1 100 101 
101 1 101 102 
102 1 102 103 
103 1 103 104 
104 1 104 105 
105 1 105 106 
106 1 106 107 
107 1 107 108 
108 1 108 109 
109 1 109 110 
110 1 110 111 
111 1 111 112 
112 1 112 113 
113 1 113 114 
114 1 114 115 
115 1 115 116 
116 1 116 117 
117 1 117 118 
118 1 118 119 
119 1 119 120 
120 1 120 121 
121 1 121 122 
122 1 122 123 
123 1 123 124 
124 1 124 125 
125 1 125 126 
126 1 126 127 
127 1 127 128 
128 1 128 129 
129 1 129 130 
130 1 130 131 
131 1 131 132 
132 1 132 133 
133 1 133 134 
134 1 134 135 
135 1 135 136 
136 1 136 137 
137 1 137 138 
138 1 138 139 
139 1 139 140 
140 1 140 141 
141 1 141 142 
142 1 142 143 
143 1 143 144 
144 1 144 145 
145 1 145 146 
146 1 146 147 
147 1 147 148 
148 1 148 149 
149 1 149 150 
150 1 150 151 
151 1 151 152 
152 1 152 153 
153 1 153 154 
154 1 154 155 
155 1 155 156 
156 1 156 157 
157 1 157 158 
158 1 158 159 
159 1 159 160 
160 1 160 161 
161 1 161 162 
162 1 162 163 
163 1 163 164 
164 1 164 165 
165 1 165 166 
166 1 166 167 
167 1 167 168 
168 1 168 169 
169 1 169 170 
170 1 170 171 
171 1 171 172 
172 1 172 173 
173 1 173 174 
174 1 174 175 
175 1 175 176 
176 1 176 177 
177 1 177 178 
178 1 178 179 
179 1 179 180 
180 1 180 181 
181 1 181 182 
182 1 182 183 
183 1 183 184 
184 1 184 185 
185 1 185 186 
186 1 186 187 
187 1 187 188 
188 1 188 189 
189 1 189 190 
190 1 190 191 
191 1 191 192 
192 1 192 193 
193 1 193 194 
194 1 194 195 
195 1 195 196 
196 1 196 197 
197 1 197 198 
198 1 198 199 
199 1 199 200 
