#NP 10*10*20
#second line will be skipped

4380     atoms
4379     bonds
0   angles
0  dihedrals
0  impropers

44 atom types
2 bond types
0 angle types
0  dihedral types
0  improper types

45.74 521.96 xlo xhi
155.97 813.05 ylo yhi
-211.11 451.12 zlo zhi

Masses

1 131.200
2 57.050
3 128.200
4 101.100
5 156.200
6 71.080
7 115.100
8 129.100
9 163.200
10 99.070
11 113.200
12 128.100
13 186.200
14 147.200
15 87.080
16 137.100
17 114.100
18 97.120
19 103.100
20 113.200
21 165.030
22 1.000
23 39.360
24 17.115
25 38.460
26 30.330
27 46.860
28 21.324
29 34.530
30 38.730
31 48.960
32 29.721
33 33.960
34 38.430
35 55.860
36 44.160
37 26.124
38 41.130
39 34.230
40 29.136
41 30.930
42 33.960
43 49.509
44 0.300

Atoms

1 1 15 0.0 263.576 366.875 251.014 
2 1 6 -1.0 265.789 364.718 253.239 
3 1 19 0.0 268.956 365.839 251.445 
4 1 18 0.0 271.389 367.835 253.613 
5 1 11 0.0 271.325 371.534 252.838 
6 1 5 0.0 274.549 372.644 251.161 
7 1 4 1.0 275.962 375.980 250.035 
8 1 20 -2.0 277.671 376.446 246.676 
9 1 3 0.0 281.386 376.863 247.369 
10 1 5 0.0 282.516 376.808 243.725 
11 1 10 0.0 281.132 376.855 240.181 
12 1 12 0.0 283.007 374.843 237.537 
13 1 14 0.0 282.224 375.726 233.928 
14 1 2 1.0 282.654 373.275 231.078 
15 1 10 0.0 281.236 372.090 227.782 
16 1 11 0.0 278.604 369.349 227.914 
17 1 15 0.0 279.734 366.103 226.328 
18 1 18 0.0 277.086 364.676 223.967 
19 1 7 -1.0 277.228 361.453 225.986 
20 1 8 0.0 276.311 363.245 229.213 
21 1 11 0.0 273.640 364.977 227.125 
22 1 3 0.0 272.285 361.564 226.126 
23 1 5 0.0 272.424 360.244 229.694 
24 1 1 0.0 271.009 363.390 231.299 
25 1 15 0.0 268.138 363.913 228.856 
26 1 10 0.0 264.849 362.407 230.004 
27 1 4 1.0 263.575 361.933 226.452 
28 1 8 0.0 264.948 358.980 224.501 
29 1 2 1.0 265.640 359.030 220.787 
30 1 2 1.0 265.484 362.820 220.820 
31 1 20 -2.0 262.606 365.004 219.701 
32 1 3 0.0 261.491 363.498 216.391 
33 1 9 0.0 258.183 365.269 215.754 
34 1 18 0.0 257.793 369.039 215.207 
35 1 8 0.0 254.102 368.764 216.124 
36 1 4 1.0 253.284 370.193 219.541 
37 1 4 1.0 249.919 368.415 219.791 
38 1 8 0.0 247.894 366.117 217.553 
39 1 2 1.0 245.144 364.338 219.479 
40 1 2 1.0 244.701 367.363 221.722 
41 1 5 0.0 247.402 366.253 224.182 
42 1 18 0.0 251.181 366.713 224.312 
43 1 3 0.0 252.642 363.879 222.268 
44 1 11 0.0 255.507 361.863 223.711 
45 1 2 1.0 258.622 362.756 221.755 
46 1 2 1.0 257.352 366.167 220.662 
47 1 11 0.0 258.417 369.730 221.378 
48 1 1 0.0 255.979 370.041 224.286 
49 1 7 -1.0 256.718 366.833 226.094 
50 1 18 0.0 254.869 365.727 229.264 
51 1 5 0.0 257.975 363.900 230.492 
52 1 12 0.0 260.008 367.059 229.925 
53 1 2 1.0 258.034 369.513 232.052 
54 1 10 0.0 254.793 370.352 233.800 
55 1 20 -2.0 251.695 371.566 231.953 
56 1 8 0.0 248.236 372.992 232.780 
57 1 5 0.0 249.400 374.329 236.220 
58 1 4 1.0 247.328 371.489 237.679 
59 1 2 1.0 249.469 368.853 235.991 
60 1 5 0.0 252.163 366.468 237.157 
61 1 19 0.0 255.095 365.560 234.929 
62 1 12 0.0 255.997 361.921 234.390 
63 1 4 1.0 259.547 362.251 235.771 
64 1 19 0.0 258.493 363.624 239.200 
65 1 6 -1.0 255.655 365.318 241.106 
66 1 2 1.0 255.547 368.726 239.484 
67 1 17 0.0 253.046 371.002 241.251 
68 1 1 0.0 254.167 373.364 238.427 
69 1 4 1.0 256.414 374.833 241.148 
70 1 8 0.0 258.782 372.230 242.610 
71 1 19 0.0 259.521 370.795 239.170 
72 1 18 0.0 262.470 372.714 237.661 
73 1 2 1.0 261.954 371.033 234.295 
74 1 16 0.0 264.113 368.567 232.438 
75 1 14 0.0 266.391 368.801 229.427 
76 1 2 1.0 265.950 367.065 226.092 
77 1 16 0.0 267.967 366.632 222.948 
78 1 20 -2.0 267.882 366.535 219.163 
79 1 8 0.0 270.290 364.214 217.355 
80 1 11 0.0 271.617 366.105 214.348 
81 1 6 -1.0 272.179 363.899 211.311 
82 1 3 0.0 275.366 365.839 210.547 
83 1 18 0.0 277.374 367.943 213.024 
84 1 10 0.0 277.028 371.731 212.989 
85 1 14 0.0 279.320 374.524 214.168 
86 1 16 0.0 278.482 376.197 217.469 
87 1 10 0.0 278.530 379.885 216.596 
88 1 2 1.0 279.931 381.010 219.950 
89 1 14 0.0 282.730 378.417 220.100 
90 1 11 0.0 283.502 379.090 216.416 
91 1 10 0.0 286.455 381.388 217.166 
92 1 3 0.0 287.949 378.834 219.561 
93 1 4 1.0 287.467 376.213 216.845 
94 1 1 0.0 289.417 378.377 214.391 
95 1 3 0.0 292.273 379.014 216.830 
96 1 10 0.0 292.582 375.337 217.769 
97 1 11 0.0 292.540 374.437 214.068 
98 1 5 0.0 295.373 376.895 213.419 
99 1 19 0.0 297.291 375.390 216.367 
100 1 10 0.0 296.806 371.768 215.234 
101 1 19 0.0 298.042 369.983 212.114 
102 1 14 0.0 295.488 368.511 209.718 
103 1 14 0.0 295.241 364.707 209.354 
104 1 19 0.0 297.997 364.474 211.981 
105 1 15 0.0 296.435 366.281 214.976 
106 1 3 0.0 299.712 366.788 216.839 
107 1 11 0.0 300.684 370.344 217.718 
108 1 11 0.0 302.483 372.288 214.999 
109 1 10 0.0 305.208 373.345 217.463 
110 1 7 -1.0 306.431 370.465 219.613 
111 1 15 0.0 305.601 370.513 223.320 
112 1 17 0.0 309.250 369.592 223.965 
113 1 17 0.0 310.336 373.106 222.947 
114 1 18 0.0 311.922 374.974 225.894 
115 1 3 0.0 309.934 377.939 224.574 
116 1 20 -2.0 306.678 376.083 225.250 
117 1 3 0.0 308.104 374.769 228.517 
118 1 7 -1.0 308.713 378.416 229.428 
119 1 20 -2.0 305.167 379.364 228.395 
120 1 11 0.0 303.778 376.514 230.507 
121 1 6 -1.0 305.987 377.491 233.455 
122 1 3 0.0 305.032 381.178 233.440 
123 1 15 0.0 301.492 380.761 232.062 
124 1 3 0.0 300.608 377.986 234.532 
125 1 2 1.0 297.177 378.808 235.929 
126 1 12 0.0 296.068 380.988 232.976 
127 1 18 0.0 294.399 378.579 230.529 
128 1 3 0.0 293.390 381.336 228.089 
129 1 3 0.0 296.702 383.209 228.107 
130 1 5 0.0 298.679 380.057 227.324 
131 1 11 0.0 296.305 379.465 224.404 
132 1 4 1.0 297.072 382.957 223.107 
133 1 16 0.0 300.828 382.383 223.403 
134 1 10 0.0 300.912 378.893 221.876 
135 1 9 0.0 298.674 380.315 219.157 
136 1 7 -1.0 301.255 383.029 218.480 
137 1 11 0.0 303.880 380.270 218.265 
138 1 19 0.0 301.903 377.675 216.304 
139 1 3 0.0 300.731 380.224 213.735 
140 1 2 1.0 304.347 380.591 212.562 
141 1 3 0.0 304.851 377.031 211.284 
142 1 17 0.0 303.441 376.617 207.778 
143 1 20 -2.0 304.719 373.031 207.423 
144 1 19 0.0 304.644 370.315 210.049 
145 1 8 0.0 307.230 367.578 209.580 
146 1 16 0.0 308.775 365.327 216.704 
147 1 2 1.0 305.888 363.806 214.774 
148 1 2 1.0 305.333 362.937 211.140 
149 1 19 0.0 303.125 364.525 208.481 
150 1 2 1.0 305.628 366.539 206.462 
151 1 5 0.0 302.931 368.245 204.378 
152 1 9 0.0 301.761 371.867 204.205 
153 1 12 0.0 299.338 373.561 206.598 
154 1 18 0.0 296.631 375.561 204.785 
155 1 5 0.0 295.105 378.834 205.888 
156 1 20 -2.0 291.581 378.759 207.321 
157 1 5 0.0 289.345 381.658 206.290 
158 1 5 0.0 285.902 382.291 207.782 
159 1 15 0.0 283.159 383.607 205.492 
160 1 2 1.0 279.911 383.885 207.407 
161 1 11 0.0 279.518 380.527 209.141 
162 1 8 0.0 281.672 378.746 206.530 
163 1 11 0.0 285.292 377.698 207.012 
164 1 9 0.0 287.805 377.400 204.171 
165 1 6 -1.0 291.296 375.953 203.751 
166 1 8 0.0 293.769 377.248 201.168 
167 1 13 0.0 297.235 376.103 200.139 
168 1 3 0.0 292.724 374.021 196.542 
169 1 3 0.0 289.810 376.082 197.858 
170 1 20 -2.0 287.754 373.543 199.804 
171 1 11 0.0 284.586 373.727 201.866 
172 1 11 0.0 285.613 372.739 205.387 
173 1 15 0.0 282.854 370.584 206.827 
174 1 18 0.0 282.151 370.210 210.555 
175 1 8 0.0 282.540 366.452 210.060 
176 1 5 0.0 286.189 366.960 209.088 
177 1 10 0.0 286.801 369.284 212.040 
178 1 16 0.0 285.190 366.747 214.382 
179 1 8 0.0 287.394 363.969 212.984 
180 1 20 -2.0 290.377 366.262 213.599 
181 1 14 0.0 289.433 367.109 217.184 
182 1 3 0.0 288.926 363.416 217.975 
183 1 5 0.0 292.670 362.766 217.700 
184 1 20 -2.0 294.099 365.559 219.886 
185 1 15 0.0 296.162 364.041 222.688 
186 1 7 -1.0 295.509 364.891 226.329 
187 1 8 0.0 298.930 366.536 226.582 
188 1 8 0.0 298.221 368.493 223.405 
189 1 19 0.0 294.814 369.730 224.534 
190 1 14 0.0 296.362 370.643 227.886 
191 1 10 0.0 299.040 372.710 226.126 
192 1 11 0.0 296.150 374.450 224.355 
193 1 2 1.0 294.737 375.457 227.749 
194 1 1 0.0 291.558 373.351 227.616 
195 1 8 0.0 291.525 370.867 230.484 
196 1 18 0.0 290.895 367.349 229.139 
197 1 5 0.0 287.972 366.198 231.294 
198 1 9 0.0 285.938 369.425 231.382 
199 1 6 -1.0 286.300 370.545 227.745 
200 1 5 0.0 287.666 368.795 224.651 
201 1 18 0.0 287.674 370.550 221.240 
202 1 8 0.0 285.159 368.295 219.451 
203 1 13 0.0 282.601 369.176 222.128 
204 1 1 0.0 282.560 372.657 220.581 
205 1 20 -2.0 280.984 371.093 217.470 
206 1 10 0.0 277.244 370.653 217.963 
207 1 4 1.0 276.086 367.067 217.467 
208 1 10 0.0 273.539 366.386 220.212 
209 1 11 0.0 271.660 369.675 220.648 
210 1 18 0.0 269.946 370.476 223.967 
211 1 10 0.0 266.246 371.302 224.188 
212 1 18 0.0 265.453 373.403 227.292 
213 1 18 0.0 262.453 372.586 229.500 
214 1 11 0.0 258.981 374.050 229.152 
215 1 15 0.0 259.869 376.150 232.204 
216 1 10 0.0 262.556 377.971 230.208 
217 1 5 0.0 260.193 378.456 227.234 
218 1 18 0.0 256.642 378.658 228.630 
219 1 6 -1.0 253.690 378.800 226.276 
220 1 10 0.0 251.240 381.708 226.084 
221 1 10 0.0 247.680 380.963 227.218 
222 1 1 0.0 245.218 383.219 225.401 
223 1 12 0.0 241.703 383.182 226.869 
224 1 2 1.0 241.933 379.391 227.063 
225 1 15 0.0 241.058 379.116 223.367 
226 1 6 -1.0 244.608 378.542 222.087 
227 1 5 0.0 248.179 378.373 223.372 
228 1 17 0.0 250.847 380.477 221.694 
229 1 12 0.0 254.513 379.511 221.920 
230 1 7 -1.0 257.872 381.059 222.761 
231 1 7 -1.0 260.509 381.968 220.170 
232 1 11 0.0 262.452 378.830 221.112 
233 1 4 1.0 259.571 376.379 220.617 
234 1 16 0.0 259.122 377.524 217.014 
235 1 3 0.0 262.879 377.660 216.417 
236 1 11 0.0 263.336 374.098 217.691 
237 1 6 -1.0 260.343 373.294 215.486 
238 1 7 -1.0 262.340 374.455 212.462 
239 1 20 -2.0 265.420 372.533 213.636 
240 1 10 0.0 263.374 369.337 213.966 
241 1 3 0.0 261.759 369.840 210.548 
242 1 20 -2.0 264.995 370.297 208.616 
243 1 17 0.0 266.732 367.691 210.779 
244 1 17 0.0 264.093 365.134 209.789 
245 1 12 0.0 264.393 366.146 206.131 
246 1 11 0.0 268.152 365.635 206.408 
247 1 5 0.0 267.634 362.199 207.981 
248 1 5 0.0 265.340 361.139 205.134 
249 1 17 0.0 267.656 362.524 202.455 
250 1 8 0.0 270.493 360.606 204.112 
251 1 12 0.0 268.456 357.410 203.789 
252 1 17 0.0 267.672 358.144 200.130 
253 1 2 1.0 271.006 359.848 199.432 
254 1 6 -1.0 269.462 362.426 197.055 
255 1 6 -1.0 271.856 364.310 194.756 
256 1 6 -1.0 274.360 364.941 197.610 
257 1 16 0.0 274.618 368.669 196.944 
258 1 10 0.0 271.066 369.072 198.265 
259 1 20 -2.0 272.507 367.581 201.453 
260 1 6 -1.0 274.994 370.456 201.521 
261 1 8 0.0 272.130 372.925 201.059 
262 1 7 -1.0 270.193 371.422 203.971 
263 1 10 0.0 273.324 371.447 206.146 
264 1 3 0.0 273.842 375.125 205.318 
265 1 11 0.0 270.252 376.015 206.203 
266 1 11 0.0 270.433 373.727 209.244 
267 1 12 0.0 273.627 375.626 210.066 
268 1 14 0.0 271.577 378.814 209.791 
269 1 16 0.0 268.919 377.616 212.243 
270 1 10 0.0 271.217 375.952 214.791 
271 1 6 -1.0 273.649 378.873 214.795 
272 1 4 1.0 270.796 381.395 214.673 
273 1 1 0.0 269.009 380.129 217.792 
274 1 10 0.0 272.175 380.932 219.753 
275 1 7 -1.0 272.863 384.319 218.118 
276 1 17 0.0 270.341 386.283 216.062 
277 1 8 0.0 272.508 389.441 215.968 
278 1 11 0.0 275.327 387.998 213.827 
279 1 18 0.0 276.529 390.534 211.230 
280 1 2 1.0 276.622 389.552 207.586 
281 1 11 0.0 273.771 387.053 207.955 
282 1 18 0.0 270.020 387.588 207.485 
283 1 5 0.0 268.432 387.691 210.930 
284 1 6 -1.0 265.731 385.076 211.437 
285 1 1 0.0 262.189 386.438 211.354 
286 1 12 0.0 259.528 384.385 213.109 
287 1 3 0.0 256.378 386.272 212.011 
288 1 15 0.0 254.917 389.804 212.014 
289 1 2 1.0 258.272 391.141 210.842 
290 1 5 0.0 259.668 390.633 214.352 
291 1 18 0.0 263.151 389.108 214.705 
292 1 11 0.0 263.639 386.192 217.068 
293 1 3 0.0 265.030 386.513 220.579 
294 1 15 0.0 268.199 384.422 220.711 
295 1 11 0.0 269.581 382.973 223.935 
296 1 3 0.0 272.356 385.566 223.718 
297 1 12 0.0 269.751 388.327 223.425 
298 1 5 0.0 268.082 386.760 226.462 
299 1 11 0.0 271.269 386.764 228.558 
300 1 3 0.0 272.996 389.940 227.362 
301 1 2 1.0 271.600 393.453 227.550 
302 1 3 0.0 269.968 395.387 230.345 
303 1 8 0.0 266.785 393.544 231.419 
304 1 2 1.0 268.520 390.356 230.311 
305 1 5 0.0 268.666 387.618 232.922 
306 1 10 0.0 272.148 388.517 234.227 
307 1 5 0.0 271.754 392.283 234.590 
308 1 2 1.0 267.951 392.399 234.614 
309 1 17 0.0 266.745 389.461 236.738 
310 1 11 0.0 269.829 388.754 238.902 
311 1 1 0.0 271.993 391.754 239.859 
312 1 2 1.0 268.732 393.594 240.533 
313 1 3 0.0 265.107 392.580 240.620 
314 1 5 0.0 261.547 393.615 241.400 
315 1 10 0.0 260.882 392.951 245.081 
316 1 7 -1.0 258.030 392.663 247.567 
317 1 14 0.0 257.181 394.723 250.666 
318 1 15 0.0 257.992 397.964 248.859 
319 1 6 -1.0 255.684 400.945 248.412 
320 1 5 0.0 256.262 403.941 246.143 
321 1 4 1.0 254.452 407.264 246.467 
322 1 10 0.0 254.941 411.039 246.473 
323 1 20 -2.0 256.692 412.775 249.376 
324 1 4 1.0 255.483 415.907 251.174 
325 1 18 0.0 257.420 417.920 253.782 
326 1 7 -1.0 256.521 417.488 257.437 
327 1 18 0.0 258.756 419.604 259.721 
328 1 17 0.0 257.127 418.198 262.876 
329 1 11 0.0 258.727 414.754 262.589 
330 1 15 0.0 262.210 413.900 263.824 
331 1 20 -2.0 265.167 413.261 261.513 
332 1 7 -1.0 264.752 409.485 261.369 
333 1 12 0.0 260.975 409.364 261.295 
334 1 10 0.0 258.744 409.264 258.231 
335 1 2 1.0 255.053 409.816 257.601 
336 1 10 0.0 253.408 406.659 256.268 
337 1 18 0.0 249.844 406.833 254.870 
338 1 5 0.0 247.390 404.312 256.278 
339 1 15 0.0 246.899 402.423 253.000 
340 1 20 -2.0 250.616 401.719 252.509 
341 1 6 -1.0 250.656 400.800 256.200 
342 1 6 -1.0 247.602 398.605 255.551 
343 1 17 0.0 249.079 396.447 252.782 
344 1 1 0.0 252.679 396.205 253.993 
345 1 4 1.0 253.098 393.594 256.728 
346 1 14 0.0 255.832 392.389 259.067 
347 1 6 -1.0 256.134 388.691 259.858 
348 1 8 0.0 256.233 388.034 263.588 
349 1 20 -2.0 257.001 385.130 265.925 
350 1 10 0.0 254.640 384.407 268.820 
351 1 4 1.0 256.219 384.165 272.280 
352 1 18 0.0 254.764 384.036 275.824 
353 1 14 0.0 255.294 387.813 275.939 
354 1 17 0.0 253.327 388.917 272.870 
355 1 20 -2.0 250.663 386.194 272.601 
356 1 7 -1.0 248.063 388.445 274.255 
357 1 5 0.0 248.751 391.388 271.939 
358 1 11 0.0 248.826 389.078 268.920 
359 1 12 0.0 245.495 387.539 269.883 
360 1 8 0.0 244.214 391.119 269.989 
361 1 11 0.0 245.555 391.862 266.496 
362 1 10 0.0 244.313 388.531 265.118 
363 1 5 0.0 240.956 389.285 266.742 
364 1 5 0.0 240.841 392.560 264.811 
365 1 2 1.0 241.936 391.093 261.484 
366 1 17 0.0 242.225 392.796 258.115 
367 1 15 0.0 239.002 394.824 258.440 
368 1 12 0.0 239.854 397.146 261.308 
369 1 9 0.0 243.335 398.462 260.570 
370 1 18 0.0 245.587 397.293 263.456 
371 1 2 1.0 245.485 393.606 262.586 
372 1 6 -1.0 246.958 390.589 260.802 
373 1 3 0.0 246.503 389.553 257.184 
374 1 9 0.0 247.936 386.041 257.614 
375 1 20 -2.0 248.799 383.529 260.323 
376 1 20 -2.0 251.658 381.110 259.620 
377 1 5 0.0 251.703 377.711 261.303 
378 1 7 -1.0 254.891 375.734 261.920 
379 1 17 0.0 254.269 373.739 258.720 
380 1 2 1.0 254.510 376.889 256.615 
381 1 7 -1.0 250.762 376.560 256.036 
382 1 5 0.0 249.342 380.013 255.323 
383 1 20 -2.0 246.053 381.087 256.934 
384 1 7 -1.0 244.136 384.031 255.462 
385 1 11 0.0 241.828 386.338 257.435 
386 1 5 0.0 240.446 388.417 254.545 
387 1 14 0.0 237.979 385.706 253.464 
388 1 16 0.0 235.228 385.276 256.078 
389 1 18 0.0 235.727 385.415 259.880 
390 1 3 0.0 237.741 382.146 259.925 
391 1 18 0.0 236.816 381.196 263.514 
392 1 15 0.0 238.794 377.956 263.769 
393 1 7 -1.0 242.300 379.281 263.069 
394 1 11 0.0 242.227 382.325 265.376 
395 1 16 0.0 244.046 380.328 268.061 
396 1 11 0.0 247.711 381.186 268.596 
397 1 12 0.0 250.607 379.449 270.324 
398 1 4 1.0 254.366 379.887 270.451 
399 1 2 1.0 256.145 379.311 267.151 
400 1 9 0.0 253.459 380.726 264.868 
401 1 3 0.0 254.290 383.712 262.676 
402 1 10 0.0 251.584 386.384 262.812 
403 1 8 0.0 251.985 388.758 259.883 
404 1 5 0.0 250.843 392.104 261.239 
405 1 16 0.0 250.349 395.546 259.772 
406 1 1 0.0 253.156 398.084 259.943 
407 1 19 0.0 252.792 400.167 263.112 
408 1 7 -1.0 254.424 403.198 264.707 
409 1 2 1.0 258.044 402.447 265.572 
410 1 7 -1.0 258.850 400.013 262.761 
411 1 20 -2.0 262.083 400.407 260.792 
412 1 10 0.0 262.051 400.885 257.014 
413 1 20 -2.0 264.835 401.494 254.502 
414 1 14 0.0 263.912 404.372 252.245 
415 1 17 0.0 265.094 405.246 248.758 
416 1 5 0.0 265.094 407.744 245.887 
417 1 12 0.0 266.360 406.935 242.388 
418 1 18 0.0 269.006 407.329 241.331 
419 1 4 1.0 271.119 406.417 244.368 
420 1 11 0.0 274.408 408.226 243.803 
421 1 16 0.0 276.014 407.588 247.209 
422 1 3 0.0 275.132 405.550 250.277 
423 1 1 0.0 273.409 408.457 252.035 
424 1 15 0.0 270.596 408.067 249.475 
425 1 1 0.0 269.456 404.907 251.288 
426 1 1 0.0 268.831 405.416 255.007 
427 1 2 1.0 266.670 403.485 257.448 
428 1 16 0.0 263.892 405.436 259.161 
429 1 5 0.0 261.368 405.016 261.973 
430 1 10 0.0 257.747 404.687 260.879 
431 1 5 0.0 254.989 407.033 262.031 
432 1 20 -2.0 251.514 406.658 260.542 
433 1 11 0.0 249.799 409.793 259.232 
434 1 18 0.0 246.687 410.626 257.190 
435 1 13 0.0 246.230 411.323 253.452 
436 1 15 0.0 248.357 409.783 250.705 
437 1 4 1.0 251.981 410.890 250.969 
438 1 14 0.0 255.263 410.070 252.642 
439 1 5 0.0 256.442 412.803 254.994 
440 1 11 0.0 259.948 413.414 256.305 
441 1 17 0.0 261.883 416.151 258.055 
442 1 11 0.0 263.572 418.643 255.788 
443 1 15 0.0 267.117 418.348 257.119 
444 1 10 0.0 266.920 414.949 255.376 
445 1 4 1.0 266.189 416.884 252.172 
446 1 4 1.0 269.825 417.394 251.151 
447 1 18 0.0 270.941 413.701 251.301 
448 1 9 0.0 268.363 412.532 248.755 
449 1 17 0.0 268.643 415.724 246.602 
450 1 6 -1.0 264.837 415.850 246.902 
451 1 7 -1.0 262.617 418.869 246.517 
452 1 14 0.0 258.863 418.560 246.756 
453 1 7 -1.0 257.356 418.705 243.328 
454 1 2 1.0 256.007 415.370 242.131 
455 1 7 -1.0 258.907 413.473 243.719 
456 1 8 0.0 258.359 409.826 244.611 
457 1 1 0.0 260.434 407.583 246.855 
458 1 17 0.0 260.499 403.820 247.379 
459 1 11 0.0 259.786 402.257 250.772 
460 1 16 0.0 261.470 398.950 251.635 
461 1 11 0.0 260.344 397.005 254.705 
462 1 18 0.0 262.646 394.457 256.397 
463 1 12 0.0 260.738 391.277 257.218 
464 1 15 0.0 263.118 389.829 259.840 
465 1 11 0.0 264.294 390.928 263.276 
466 1 8 0.0 267.867 390.085 262.267 
467 1 4 1.0 267.879 392.383 259.238 
468 1 5 0.0 265.914 394.931 261.281 
469 1 6 -1.0 268.756 394.900 263.806 
470 1 8 0.0 271.284 395.295 260.986 
471 1 20 -2.0 269.440 398.326 259.613 
472 1 12 0.0 269.036 399.752 263.104 
473 1 8 0.0 272.727 399.442 264.009 
474 1 11 0.0 274.101 400.350 260.544 
475 1 6 -1.0 271.826 402.276 258.160 
476 1 1 0.0 269.906 404.504 260.590 
477 1 10 0.0 269.922 408.204 259.764 
478 1 18 0.0 271.488 409.580 263.002 
479 1 5 0.0 274.504 407.306 262.440 
480 1 1 0.0 274.972 408.499 258.842 
481 1 20 -2.0 275.166 412.254 259.576 
482 1 10 0.0 278.875 412.641 258.806 
483 1 4 1.0 279.828 411.348 255.387 
484 1 18 0.0 283.018 409.316 254.905 
485 1 12 0.0 283.322 410.928 251.466 
486 1 15 0.0 284.154 414.517 252.426 
487 1 17 0.0 284.373 413.939 256.233 
488 1 5 0.0 281.627 416.577 256.466 
489 1 18 0.0 278.093 416.301 257.838 
490 1 10 0.0 275.561 415.469 255.145 
491 1 1 0.0 272.539 417.073 256.802 
492 1 2 1.0 272.327 420.725 257.792 
493 1 20 -2.0 269.809 423.461 258.423 
494 1 10 0.0 268.233 424.263 255.054 
495 1 12 0.0 265.533 426.540 253.556 
496 1 7 -1.0 263.442 428.531 256.076 
497 1 4 1.0 264.998 427.335 259.327 
498 1 11 0.0 268.457 428.598 258.328 
499 1 4 1.0 267.215 432.079 257.394 
500 1 6 -1.0 265.166 432.206 260.598 
501 1 10 0.0 268.270 431.108 262.507 
502 1 5 0.0 270.186 434.050 261.062 
503 1 3 0.0 267.439 436.614 261.683 
504 1 14 0.0 266.708 434.933 265.031 
505 1 4 1.0 270.332 435.057 266.244 
506 1 3 0.0 270.856 438.803 265.768 
507 1 5 0.0 271.361 440.967 268.841 
508 1 7 -1.0 268.184 442.874 267.973 
509 1 10 0.0 265.924 439.897 268.665 
510 1 14 0.0 264.295 440.276 272.065 
511 1 11 0.0 261.496 438.097 273.382 
512 1 8 0.0 258.794 438.839 275.931 
513 1 5 0.0 257.646 436.228 278.431 
514 1 2 1.0 254.951 434.270 276.586 
515 1 8 0.0 256.925 433.930 273.354 
516 1 10 0.0 259.737 432.391 275.399 
517 1 1 0.0 257.116 430.135 276.975 
518 1 17 0.0 256.167 428.769 273.550 
519 1 11 0.0 259.734 428.433 272.271 
520 1 11 0.0 260.712 426.566 275.434 
521 1 1 0.0 257.545 424.499 275.051 
522 1 14 0.0 258.878 423.201 271.728 
523 1 11 0.0 262.250 422.091 273.155 
524 1 15 0.0 262.251 418.316 273.655 
525 1 4 1.0 265.595 418.116 275.488 
526 1 13 0.0 264.934 421.090 277.752 
527 1 7 -1.0 265.399 420.686 281.501 
528 1 2 1.0 262.282 422.615 282.549 
529 1 3 0.0 264.256 425.496 284.105 
530 1 10 0.0 263.434 428.902 282.607 
531 1 18 0.0 266.688 430.854 282.117 
532 1 12 0.0 267.097 434.267 283.674 
533 1 18 0.0 266.592 436.898 280.953 
534 1 6 -1.0 269.234 439.210 279.545 
535 1 20 -2.0 267.300 442.320 280.638 
536 1 11 0.0 265.715 441.994 284.075 
537 1 3 0.0 264.382 445.551 284.384 
538 1 18 0.0 262.145 447.444 283.494 
539 1 5 0.0 260.647 444.413 281.725 
540 1 18 0.0 262.015 440.866 281.333 
541 1 11 0.0 263.463 440.223 277.873 
542 1 13 0.0 265.159 437.045 276.706 
543 1 4 1.0 267.427 437.275 273.668 
544 1 2 1.0 267.639 434.995 270.634 
545 1 3 0.0 271.160 433.867 271.494 
546 1 12 0.0 270.035 433.231 275.070 
547 1 20 -2.0 267.329 430.745 274.076 
548 1 14 0.0 269.365 429.264 271.228 
549 1 15 0.0 272.051 428.587 273.840 
550 1 11 0.0 269.511 426.180 275.360 
551 1 20 -2.0 269.418 424.226 272.090 
552 1 20 -2.0 273.167 423.542 271.908 
553 1 18 0.0 273.539 420.242 273.779 
554 1 2 1.0 276.005 419.304 276.478 
555 1 16 0.0 279.057 421.525 276.529 
556 1 20 -2.0 280.178 422.181 272.950 
557 1 17 0.0 283.094 424.380 271.873 
558 1 19 0.0 283.221 426.034 268.464 
559 1 20 -2.0 284.541 429.186 266.786 
560 1 5 0.0 283.289 430.206 263.322 
561 1 4 1.0 282.939 433.444 261.347 
562 1 16 0.0 279.794 434.836 259.737 
563 1 15 0.0 279.742 435.439 255.986 
564 1 4 1.0 279.711 439.247 256.152 
565 1 16 0.0 282.631 439.243 258.624 
566 1 18 0.0 285.320 441.530 257.162 
567 1 7 -1.0 289.062 441.008 257.601 
568 1 7 -1.0 289.566 444.375 259.333 
569 1 8 0.0 288.122 443.390 262.725 
570 1 7 -1.0 290.935 440.863 263.211 
571 1 15 0.0 293.719 443.401 262.629 
572 1 2 1.0 293.077 446.135 265.182 
573 1 18 0.0 290.904 446.742 268.233 
574 1 9 0.0 287.480 445.112 268.537 
575 1 3 0.0 288.834 441.645 267.780 
576 1 16 0.0 286.469 440.089 270.324 
577 1 20 -2.0 283.811 442.829 270.246 
578 1 15 0.0 283.198 442.667 266.458 
579 1 18 0.0 280.965 445.748 266.000 
580 1 2 1.0 278.888 443.849 263.442 
581 1 7 -1.0 278.086 441.140 266.058 
582 1 4 1.0 279.888 438.776 263.643 
583 1 3 0.0 282.299 435.855 264.064 
584 1 10 0.0 280.888 433.227 266.506 
585 1 10 0.0 281.782 431.870 269.943 
586 1 10 0.0 280.321 428.798 271.650 
587 1 8 0.0 281.735 428.048 275.102 
588 1 17 0.0 280.669 425.370 277.582 
589 1 2 1.0 277.538 424.662 275.551 
590 1 8 0.0 276.510 428.321 275.310 
591 1 11 0.0 276.358 430.868 272.488 
592 1 20 -2.0 278.226 434.000 273.552 
593 1 1 0.0 278.263 435.957 270.290 
594 1 2 1.0 278.006 435.709 266.522 
595 1 20 -2.0 275.364 435.241 263.845 
596 1 11 0.0 274.785 431.766 262.441 
597 1 19 0.0 274.657 431.049 258.709 
598 1 3 0.0 275.517 428.318 256.207 
599 1 3 0.0 279.052 428.566 257.621 
600 1 15 0.0 277.866 427.602 261.132 
601 1 11 0.0 274.785 425.350 261.328 
602 1 2 1.0 275.013 424.343 257.671 
603 1 4 1.0 277.038 421.523 256.181 
604 1 15 0.0 280.762 422.318 256.157 
605 1 6 -1.0 283.944 420.968 257.697 
606 1 2 1.0 284.057 421.624 261.427 
607 1 15 0.0 280.617 423.222 261.602 
608 1 11 0.0 278.799 423.436 264.936 
609 1 10 0.0 276.735 420.379 263.981 
610 1 16 0.0 279.816 418.345 263.031 
611 1 20 -2.0 281.486 419.309 266.316 
612 1 15 0.0 278.283 418.277 268.088 
613 1 9 0.0 278.516 414.890 266.360 
614 1 11 0.0 282.140 414.063 267.144 
615 1 8 0.0 282.218 415.604 270.622 
616 1 1 0.0 278.837 414.434 271.979 
617 1 2 1.0 277.400 411.722 269.746 
618 1 16 0.0 274.752 410.923 267.183 
619 1 7 -1.0 271.888 410.412 269.651 
620 1 20 -2.0 271.990 413.946 271.033 
621 1 4 1.0 272.922 415.481 267.669 
622 1 5 0.0 269.635 414.223 266.205 
623 1 11 0.0 267.783 416.082 268.954 
624 1 14 0.0 269.940 419.125 268.170 
625 1 9 0.0 268.629 419.174 264.589 
626 1 15 0.0 265.027 418.503 265.605 
627 1 17 0.0 264.998 421.135 268.347 
628 1 20 -2.0 266.450 423.793 266.017 
629 1 12 0.0 263.838 422.919 263.377 
630 1 4 1.0 260.786 423.023 265.645 
631 1 10 0.0 261.570 426.017 267.844 
632 1 20 -2.0 262.866 428.280 265.092 
633 1 17 0.0 259.967 427.482 262.768 
634 1 17 0.0 257.423 428.150 265.513 
635 1 13 0.0 259.242 431.404 266.193 
636 1 11 0.0 259.464 432.067 262.447 
637 1 11 0.0 255.666 432.346 262.553 
638 1 20 -2.0 256.053 435.556 264.559 
639 1 8 0.0 258.195 437.695 262.248 
640 1 2 1.0 257.498 435.785 259.044 
641 1 16 0.0 259.533 435.913 255.845 
642 1 4 1.0 258.668 437.098 252.353 
643 1 20 -2.0 259.886 438.328 248.997 
644 1 2 1.0 258.150 441.209 247.261 
645 1 20 -2.0 258.840 443.671 244.482 
646 1 2 1.0 259.960 446.237 247.055 
647 1 7 -1.0 262.841 443.884 247.816 
648 1 15 0.0 263.982 443.870 244.165 
649 1 20 -2.0 263.957 447.669 243.687 
650 1 6 -1.0 266.986 449.902 244.273 
651 1 7 -1.0 267.210 453.631 244.916 
652 1 15 0.0 266.484 456.160 242.186 
653 1 3 0.0 270.155 457.139 242.503 
654 1 4 1.0 271.476 453.591 242.082 
655 1 9 0.0 269.739 453.275 238.708 
656 1 12 0.0 271.567 456.324 237.359 
657 1 7 -1.0 274.800 454.944 238.826 
658 1 20 -2.0 274.342 451.584 237.083 
659 1 12 0.0 273.286 453.078 233.748 
660 1 17 0.0 276.239 455.475 233.876 
661 1 4 1.0 278.580 452.514 234.385 
662 1 20 -2.0 276.919 450.649 231.502 
663 1 3 0.0 277.197 453.528 229.032 
664 1 3 0.0 280.820 453.965 230.114 
665 1 6 -1.0 281.514 450.297 229.360 
666 1 3 0.0 279.782 450.305 225.972 
667 1 12 0.0 281.627 453.483 224.989 
668 1 7 -1.0 284.906 451.777 225.905 
669 1 10 0.0 283.907 448.793 223.752 
670 1 20 -2.0 283.237 451.192 220.874 
671 1 8 0.0 286.715 452.653 221.408 
672 1 10 0.0 288.349 449.211 221.282 
673 1 20 -2.0 286.421 448.134 218.182 
674 1 8 0.0 287.283 451.394 216.420 
675 1 3 0.0 290.891 450.647 217.337 
676 1 6 -1.0 290.604 447.216 215.719 
677 1 16 0.0 289.173 448.692 212.509 
678 1 17 0.0 292.343 450.770 212.021 
679 1 17 0.0 294.576 447.728 212.805 
680 1 8 0.0 296.100 449.618 215.770 
681 1 11 0.0 295.309 446.631 218.006 
682 1 8 0.0 298.529 444.673 218.557 
683 1 18 0.0 298.125 440.903 218.995 
684 1 4 1.0 299.111 439.665 222.428 
685 1 18 0.0 301.781 436.942 222.063 
686 1 2 1.0 300.075 433.570 221.828 
687 1 17 0.0 296.789 435.066 220.586 
688 1 4 1.0 295.200 435.682 217.208 
689 1 11 0.0 293.840 439.197 216.653 
690 1 5 0.0 290.359 437.747 217.162 
691 1 12 0.0 291.526 436.084 220.384 
692 1 4 1.0 293.078 439.235 221.856 
693 1 14 0.0 290.075 441.272 220.673 
694 1 8 0.0 287.541 438.975 222.345 
695 1 17 0.0 289.814 438.905 225.401 
696 1 12 0.0 289.836 442.701 225.726 
697 1 10 0.0 286.081 443.023 225.176 
698 1 17 0.0 285.420 440.290 227.743 
699 1 5 0.0 287.664 442.159 230.195 
700 1 20 -2.0 285.683 445.379 229.741 
701 1 11 0.0 282.230 443.787 229.904 
702 1 17 0.0 283.027 441.594 232.913 
703 1 7 -1.0 284.432 444.655 234.689 
704 1 6 -1.0 281.150 446.429 233.911 
705 1 5 0.0 278.771 443.730 235.152 
706 1 7 -1.0 280.934 443.076 238.226 
707 1 3 0.0 281.054 446.760 239.187 
708 1 4 1.0 277.306 447.226 238.676 
709 1 2 1.0 276.756 444.072 240.707 
710 1 15 0.0 278.795 445.384 243.632 
711 1 15 0.0 276.856 448.654 243.381 
712 1 6 -1.0 273.495 446.873 243.556 
713 1 12 0.0 274.843 444.941 246.540 
714 1 3 0.0 275.772 448.225 248.218 
715 1 15 0.0 272.255 449.553 247.526 
716 1 11 0.0 270.588 446.824 249.619 
717 1 15 0.0 268.907 447.848 252.858 
718 1 8 0.0 269.279 445.743 255.993 
719 1 9 0.0 265.539 445.035 255.687 
720 1 17 0.0 265.755 443.741 252.108 
721 1 17 0.0 264.907 440.049 251.985 
722 1 14 0.0 267.225 439.110 249.107 
723 1 3 0.0 270.037 439.991 251.510 
724 1 15 0.0 268.325 437.925 254.219 
725 1 1 0.0 268.398 434.809 252.030 
726 1 10 0.0 271.814 435.342 250.427 
727 1 10 0.0 273.821 436.426 253.480 
728 1 15 0.0 272.825 433.336 255.457 
729 1 2 1.0 273.497 431.175 252.398 
730 1 6 -1.0 270.091 429.524 252.765 
731 1 3 0.0 269.339 429.919 249.060 
732 1 2 1.0 270.370 432.225 246.247 
733 1 15 0.0 273.669 433.988 245.686 
734 1 3 0.0 275.017 437.487 245.140 
735 1 20 -2.0 275.096 437.035 241.349 
736 1 17 0.0 271.316 436.594 241.392 
737 1 20 -2.0 270.867 439.910 243.203 
738 1 15 0.0 273.169 441.402 240.565 
739 1 12 0.0 271.089 440.037 237.681 
740 1 10 0.0 267.840 441.166 239.322 
741 1 20 -2.0 268.738 444.724 240.305 
742 1 6 -1.0 271.470 445.781 237.896 
743 1 10 0.0 272.575 443.805 234.831 
744 1 10 0.0 271.918 440.289 233.572 
745 1 2 1.0 275.272 440.263 231.778 
746 1 12 0.0 276.978 438.597 228.857 
747 1 12 0.0 275.273 435.523 227.414 
748 1 17 0.0 277.486 432.758 226.038 
749 1 10 0.0 276.851 429.871 223.640 
750 1 8 0.0 279.537 427.166 223.901 
751 1 2 1.0 281.832 429.297 226.036 
752 1 3 0.0 281.989 432.056 223.419 
753 1 5 0.0 280.122 435.287 222.795 
754 1 20 -2.0 276.964 434.771 220.730 
755 1 18 0.0 277.991 433.457 217.293 
756 1 14 0.0 276.929 434.397 213.779 
757 1 2 1.0 274.027 432.216 212.669 
758 1 14 0.0 273.309 434.326 209.607 
759 1 3 0.0 275.952 435.649 207.227 
760 1 16 0.0 278.275 437.800 209.358 
761 1 5 0.0 275.482 439.019 211.652 
762 1 4 1.0 273.672 437.560 214.643 
763 1 11 0.0 270.043 438.554 213.916 
764 1 18 0.0 268.287 440.201 210.957 
765 1 16 0.0 267.992 443.474 212.855 
766 1 14 0.0 271.700 444.046 213.395 
767 1 20 -2.0 274.029 445.281 210.684 
768 1 3 0.0 276.620 442.926 209.214 
769 1 7 -1.0 280.032 442.909 210.928 
770 1 7 -1.0 278.765 444.373 214.209 
771 1 9 0.0 280.939 443.234 217.120 
772 1 2 1.0 279.437 445.780 219.515 
773 1 18 0.0 278.109 444.717 222.908 
774 1 8 0.0 274.450 444.731 221.850 
775 1 15 0.0 274.715 442.679 218.649 
776 1 5 0.0 276.722 439.847 220.228 
777 1 2 1.0 274.402 439.335 223.194 
778 1 14 0.0 275.438 441.509 226.133 
779 1 10 0.0 272.245 442.084 228.121 