#NP 10*10*20
#second line will be skipped

991     atoms
990     bonds
0   angles
0  dihedrals
0  impropers

44 atom types
2 bond types
0 angle types
0  dihedral types
0  improper types

135.98 586.58 xlo xhi
282.12 965.18 ylo yhi
33.40 433.53 zlo zhi

Masses

1 131.200
2 57.050
3 128.200
4 101.100
5 156.200
6 71.080
7 115.100
8 129.100
9 163.200
10 99.070
11 113.200
12 128.100
13 186.200
14 147.200
15 87.080
16 137.100
17 114.100
18 97.120
19 103.100
20 113.200
21 165.030
22 1.000
23 39.360
24 17.115
25 38.460
26 30.330
27 46.860
28 21.324
29 34.530
30 38.730
31 48.960
32 29.721
33 33.960
34 38.430
35 55.860
36 44.160
37 26.124
38 41.130
39 34.230
40 29.136
41 30.930
42 33.960
43 49.509
44 0.300

Atoms

1 1 1 0.0 379.199 542.953 216.749 
2 1 15 0.0 380.756 546.118 215.625 
3 1 15 0.0 378.705 549.430 215.802 
4 1 16 0.0 376.370 550.919 213.369 
5 1 16 0.0 373.565 553.901 214.055 
6 1 4 1.0 376.178 556.949 214.802 
7 1 4 1.0 378.025 559.976 215.933 
8 1 14 0.0 377.901 562.311 219.060 
9 1 18 0.0 379.558 565.261 220.701 
10 1 14 0.0 378.873 568.944 221.374 
11 1 7 -1.0 380.167 572.509 222.792 
12 1 18 0.0 380.805 572.651 226.467 
13 1 8 0.0 383.603 570.169 228.050 
14 1 5 0.0 386.704 571.042 230.151 
15 1 5 0.0 384.343 571.758 233.121 
16 1 10 0.0 382.629 568.360 232.515 
17 1 5 0.0 385.947 566.387 232.243 
18 1 15 0.0 387.435 568.270 235.255 
19 1 4 1.0 384.318 567.484 237.408 
20 1 11 0.0 384.211 563.851 236.130 
21 1 3 0.0 387.822 563.173 237.272 
22 1 3 0.0 387.742 565.392 240.445 
23 1 10 0.0 384.398 564.167 241.948 
24 1 14 0.0 383.587 560.764 240.343 
25 1 2 1.0 387.209 559.501 239.852 
26 1 14 0.0 386.701 558.641 236.120 
27 1 7 -1.0 389.100 559.630 233.280 
28 1 15 0.0 386.371 559.122 230.602 
29 1 14 0.0 382.676 558.294 230.015 
30 1 3 0.0 381.582 554.596 229.674 
31 1 4 1.0 380.245 555.387 226.134 
32 1 18 0.0 380.107 558.373 223.684 
33 1 11 0.0 376.279 558.201 224.166 
34 1 12 0.0 376.785 558.870 227.935 
35 1 8 0.0 379.010 561.916 227.081 
36 1 15 0.0 376.421 563.126 224.461 
37 1 6 -1.0 373.496 562.742 226.920 
38 1 4 1.0 375.482 564.493 229.721 
39 1 1 0.0 376.449 567.399 227.379 
40 1 6 -1.0 372.781 567.816 226.280 
41 1 10 0.0 371.728 568.155 229.986 
42 1 10 0.0 374.687 570.575 230.698 
43 1 3 0.0 373.471 572.729 227.733 
44 1 2 1.0 370.032 572.955 229.473 
45 1 17 0.0 368.221 573.985 226.220 
46 1 3 0.0 365.952 570.873 225.698 
47 1 7 -1.0 364.141 568.226 227.726 
48 1 10 0.0 366.172 564.960 227.572 
49 1 14 0.0 365.236 561.240 227.435 
50 1 10 0.0 367.894 558.668 228.512 
51 1 19 0.0 367.069 555.003 227.756 
52 1 1 0.0 370.130 552.913 228.794 
53 1 18 0.0 370.516 549.497 230.608 
54 1 4 1.0 370.945 549.081 234.399 
55 1 2 1.0 374.673 549.637 235.280 
56 1 6 -1.0 375.270 551.617 231.986 
57 1 2 1.0 375.897 554.808 234.096 
58 1 3 0.0 372.488 556.620 233.664 
59 1 15 0.0 372.871 558.383 237.057 
60 1 11 0.0 376.032 560.268 235.925 
61 1 19 0.0 374.012 561.915 233.067 
62 1 9 0.0 372.108 563.995 235.718 
63 1 12 0.0 374.459 563.836 238.783 
64 1 11 0.0 377.386 565.518 236.909 
65 1 18 0.0 375.235 568.381 235.363 
66 1 6 -1.0 373.577 568.933 238.800 
67 1 11 0.0 377.066 569.768 240.233 
68 1 11 0.0 377.912 572.069 237.241 
69 1 6 -1.0 374.660 574.112 237.496 
70 1 3 0.0 374.120 576.910 240.116 
71 1 2 1.0 370.909 575.702 241.881 
72 1 20 -2.0 369.391 572.399 243.156 
73 1 4 1.0 368.406 569.273 241.162 
74 1 20 -2.0 365.219 567.381 242.187 
75 1 10 0.0 365.442 563.596 241.491 
76 1 10 0.0 362.114 561.711 241.531 
77 1 15 0.0 362.784 557.936 242.035 
78 1 18 0.0 360.278 555.172 243.036 
79 1 11 0.0 362.163 553.130 245.714 
80 1 20 -2.0 363.536 554.395 249.066 
81 1 6 -1.0 366.142 551.544 248.891 
82 1 11 0.0 367.559 552.798 245.522 
83 1 20 -2.0 367.402 556.406 246.835 
84 1 12 0.0 369.473 555.404 249.925 
85 1 7 -1.0 372.119 553.573 247.786 
86 1 12 0.0 372.520 556.628 245.474 
87 1 10 0.0 372.572 559.027 248.522 
88 1 7 -1.0 375.231 556.978 250.413 
89 1 16 0.0 377.339 556.687 247.205 
90 1 11 0.0 377.138 560.509 246.632 
91 1 11 0.0 378.046 561.131 250.340 
92 1 4 1.0 381.308 559.089 249.913 
93 1 11 0.0 382.054 561.374 246.885 
94 1 3 0.0 381.534 564.337 249.376 
95 1 10 0.0 378.495 565.632 247.379 
96 1 5 0.0 375.830 567.653 249.278 
97 1 10 0.0 372.935 565.204 248.735 
98 1 15 0.0 369.688 564.719 250.721 
99 1 15 0.0 366.436 562.712 250.345 
100 1 11 0.0 362.782 563.513 251.170 
101 1 17 0.0 360.929 560.212 251.733 
102 1 15 0.0 358.241 558.668 254.020 
103 1 3 0.0 360.863 557.250 256.518 
104 1 11 0.0 362.344 560.678 257.495 
105 1 15 0.0 361.467 561.807 261.032 
106 1 6 -1.0 359.533 565.059 261.561 
107 1 12 0.0 362.818 566.723 262.730 
108 1 8 0.0 365.047 565.699 259.737 
109 1 5 0.0 362.129 566.799 257.484 
110 1 3 0.0 361.879 570.226 259.248 
111 1 8 0.0 365.685 570.706 258.921 
112 1 11 0.0 365.629 569.724 255.198 
113 1 11 0.0 362.628 571.987 254.326 
114 1 6 -1.0 364.360 574.847 256.228 
115 1 7 -1.0 367.582 574.277 254.154 
116 1 11 0.0 365.535 574.446 250.883 
117 1 8 0.0 363.726 577.643 252.094 
118 1 5 0.0 367.040 579.528 252.827 
119 1 8 0.0 368.280 582.068 250.221 
120 1 3 0.0 371.329 579.808 249.565 
121 1 18 0.0 370.392 576.132 250.274 
122 1 12 0.0 373.298 573.775 251.059 
123 1 4 1.0 371.470 570.820 249.382 
124 1 3 0.0 372.752 570.284 245.781 
125 1 20 -2.0 370.834 567.086 244.857 
126 1 11 0.0 367.434 566.302 246.463 
127 1 9 0.0 366.099 562.761 245.963 
128 1 20 -2.0 362.302 562.489 246.432 
129 1 4 1.0 359.589 559.798 246.090 
130 1 18 0.0 356.690 560.626 243.643 
131 1 8 0.0 354.067 560.612 246.472 
132 1 1 0.0 356.244 563.138 248.423 
133 1 6 -1.0 356.898 565.298 245.287 
134 1 6 -1.0 353.101 565.428 244.677 
135 1 15 0.0 352.304 565.892 248.441 
136 1 15 0.0 350.393 569.046 249.527 
137 1 15 0.0 352.981 569.556 252.340 
138 1 14 0.0 355.888 569.882 249.809 
139 1 12 0.0 354.103 572.308 247.380 
140 1 18 0.0 354.927 575.512 249.453 
141 1 4 1.0 358.695 574.702 249.673 
142 1 11 0.0 358.666 573.743 245.958 
143 1 17 0.0 356.906 577.044 244.996 
144 1 15 0.0 359.599 578.922 247.054 
145 1 11 0.0 362.376 577.167 245.019 
146 1 10 0.0 360.447 578.068 241.781 
147 1 15 0.0 359.980 581.828 242.479 
148 1 5 0.0 363.684 582.162 243.502 
149 1 16 0.0 364.754 580.301 240.273 
150 1 11 0.0 366.790 577.786 242.387 
151 1 11 0.0 365.639 574.676 240.410 
152 1 15 0.0 368.296 573.735 237.809 
153 1 9 0.0 366.786 570.395 236.622 
154 1 11 0.0 363.768 568.133 237.166 
155 1 10 0.0 364.957 564.486 236.991 
156 1 10 0.0 362.471 561.579 236.652 
157 1 7 -1.0 364.171 558.219 237.303 
158 1 8 0.0 362.599 554.901 236.145 
159 1 6 -1.0 360.284 557.094 233.983 
160 1 16 0.0 358.507 553.983 232.500 
161 1 19 0.0 356.438 554.034 235.770 
162 1 10 0.0 354.135 556.715 234.123 
163 1 15 0.0 353.073 554.272 231.365 
164 1 12 0.0 350.196 551.855 231.938 
165 1 13 0.0 351.966 549.753 229.214 
166 1 2 1.0 355.117 549.761 231.444 
167 1 16 0.0 355.829 546.647 233.589 
168 1 7 -1.0 355.896 548.675 236.901 
169 1 14 0.0 353.080 551.290 236.504 
170 1 5 0.0 352.836 553.719 239.516 
171 1 18 0.0 349.732 556.032 239.825 
172 1 7 -1.0 351.724 558.854 241.556 
173 1 9 0.0 354.054 559.145 238.493 
174 1 11 0.0 351.051 560.603 236.529 
175 1 5 0.0 351.087 563.595 238.992 
176 1 11 0.0 354.608 564.500 237.710 
177 1 2 1.0 353.232 565.956 234.399 
178 1 6 -1.0 351.335 568.707 236.309 
179 1 11 0.0 354.447 569.291 238.501 
180 1 5 0.0 356.666 569.534 235.367 
181 1 15 0.0 354.291 572.019 233.598 
182 1 5 0.0 354.753 574.463 236.570 
183 1 11 0.0 358.581 574.011 236.234 
184 1 2 1.0 358.740 575.553 232.685 
185 1 16 0.0 362.126 577.268 233.479 
186 1 6 -1.0 363.906 573.989 234.500 
187 1 18 0.0 364.797 571.314 231.847 
188 1 19 0.0 363.304 567.850 232.450 
189 1 10 0.0 365.509 564.688 232.268 
190 1 6 -1.0 363.534 561.411 232.006 
191 1 11 0.0 365.587 558.192 232.576 
192 1 4 1.0 364.703 554.464 232.197 
193 1 6 -1.0 366.287 551.002 231.753 
194 1 4 1.0 363.450 549.851 229.415 
195 1 6 -1.0 361.132 551.591 226.937 
196 1 4 1.0 359.089 550.131 224.090 
197 1 18 0.0 358.008 552.771 221.465 
198 1 12 0.0 354.590 553.064 223.240 
199 1 10 0.0 356.269 553.507 226.693 
200 1 12 0.0 358.555 556.234 225.208 
201 1 8 0.0 355.544 558.137 223.716 
202 1 7 -1.0 353.585 557.685 227.003 
203 1 10 0.0 356.653 559.159 228.850 
204 1 14 0.0 356.754 562.225 226.548 
205 1 6 -1.0 352.965 562.754 226.937 
206 1 6 -1.0 352.492 562.003 230.698 
207 1 11 0.0 355.567 564.120 231.706 
208 1 16 0.0 354.530 566.897 229.171 
209 1 11 0.0 358.172 567.078 227.816 
210 1 3 0.0 359.536 570.023 225.656 
211 1 3 0.0 359.314 569.027 221.966 
212 1 18 0.0 361.711 568.268 220.306 
213 1 10 0.0 362.999 565.980 223.132 
214 1 6 -1.0 366.703 564.994 222.925 
215 1 20 -2.0 366.655 561.137 222.747 
216 1 14 0.0 369.638 559.002 223.879 
217 1 3 0.0 368.868 555.240 223.473 
218 1 4 1.0 371.478 552.469 224.007 
219 1 18 0.0 370.723 549.366 221.850 
220 1 19 0.0 369.321 546.447 223.907 
221 1 14 0.0 371.854 543.990 222.321 
222 1 5 0.0 374.926 542.955 224.384 
223 1 6 -1.0 377.360 540.633 222.554 
224 1 17 0.0 378.808 539.345 225.904 
225 1 11 0.0 375.419 537.762 226.897 
226 1 14 0.0 374.505 534.258 225.661 
227 1 9 0.0 370.699 533.622 225.710 
228 1 7 -1.0 369.001 530.174 225.850 
229 1 10 0.0 365.534 528.706 226.519 
230 1 12 0.0 365.265 525.219 228.108 
231 1 14 0.0 361.967 523.251 228.307 
232 1 3 0.0 361.485 521.584 231.759 
233 1 8 0.0 359.112 518.945 230.271 
234 1 11 0.0 362.188 517.584 228.353 
235 1 20 -2.0 364.762 517.544 231.256 
236 1 15 0.0 365.060 514.268 233.253 
237 1 7 -1.0 366.894 516.033 236.158 
238 1 18 0.0 365.901 519.761 236.176 
239 1 9 0.0 368.066 520.433 239.302 
240 1 2 1.0 371.145 518.645 237.847 
241 1 17 0.0 370.767 520.687 234.615 
242 1 11 0.0 370.620 523.926 236.709 
243 1 3 0.0 373.655 522.908 238.893 
244 1 7 -1.0 375.769 522.036 235.792 
245 1 14 0.0 374.738 525.370 234.145 
246 1 19 0.0 375.776 527.244 237.344 
247 1 11 0.0 379.184 525.428 237.480 
248 1 3 0.0 379.946 525.878 233.724 
249 1 6 -1.0 379.082 529.602 233.985 
250 1 11 0.0 381.283 529.937 237.151 
251 1 2 1.0 383.264 532.583 238.984 
252 1 12 0.0 383.544 531.834 242.586 
253 1 8 0.0 383.963 532.388 246.620 
254 1 6 -1.0 386.370 534.243 248.539 
255 1 7 -1.0 385.292 536.499 251.543 
256 1 3 0.0 381.426 537.244 252.959 
257 1 2 1.0 380.763 540.913 254.147 
258 1 11 0.0 377.858 541.169 256.411 
259 1 15 0.0 374.185 542.325 257.208 
260 1 2 1.0 372.216 542.341 260.529 
261 1 19 0.0 370.218 539.058 260.956 
262 1 2 1.0 372.019 536.903 258.320 
263 1 20 -2.0 372.733 536.514 254.572 
264 1 10 0.0 372.726 533.296 252.442 
265 1 9 0.0 374.630 533.815 249.141 
266 1 19 0.0 373.840 531.558 246.144 
267 1 5 0.0 374.798 531.434 242.416 
268 1 4 1.0 371.384 531.079 240.675 
269 1 5 0.0 367.957 532.739 240.994 
270 1 8 0.0 366.252 529.351 241.178 
271 1 6 -1.0 368.451 528.291 244.162 
272 1 19 0.0 367.737 531.702 245.832 
273 1 8 0.0 363.945 531.083 245.757 
274 1 12 0.0 364.283 527.360 246.764 
275 1 11 0.0 366.560 528.136 249.786 
276 1 6 -1.0 364.153 530.880 250.990 
277 1 20 -2.0 361.278 528.308 250.877 
278 1 8 0.0 363.359 525.464 252.503 
279 1 11 0.0 364.570 527.693 255.392 
280 1 15 0.0 361.057 529.162 255.977 
281 1 19 0.0 359.394 525.685 255.951 
282 1 5 0.0 362.148 524.509 258.419 
283 1 2 1.0 361.328 527.354 260.920 
284 1 10 0.0 363.752 530.158 259.762 
285 1 17 0.0 361.798 533.063 258.152 
286 1 6 -1.0 363.764 533.709 254.936 
287 1 3 0.0 363.206 535.801 251.744 
288 1 6 -1.0 364.849 535.635 248.308 
289 1 9 0.0 366.705 538.643 246.795 
290 1 16 0.0 367.704 538.732 243.133 
291 1 6 -1.0 367.614 540.899 239.967 
292 1 2 1.0 364.582 538.792 238.754 
293 1 11 0.0 362.195 540.455 241.318 
294 1 3 0.0 360.170 543.666 240.655 
295 1 6 -1.0 361.820 546.950 241.743 
296 1 15 0.0 359.198 547.434 244.538 
297 1 8 0.0 359.613 543.804 245.777 
298 1 5 0.0 363.420 544.292 246.095 
299 1 4 1.0 362.932 547.547 248.085 
300 1 11 0.0 360.304 545.816 250.312 
301 1 10 0.0 362.429 542.661 251.029 
302 1 12 0.0 365.500 544.884 251.658 
303 1 17 0.0 363.535 547.162 254.063 
304 1 7 -1.0 361.937 544.173 255.923 
305 1 13 0.0 365.471 542.680 256.437 
306 1 1 0.0 366.829 546.118 257.528 
307 1 8 0.0 363.829 546.367 259.975 
308 1 8 0.0 364.545 542.737 261.238 
309 1 3 0.0 360.995 541.454 260.305 
310 1 10 0.0 362.961 539.067 258.012 
311 1 18 0.0 366.027 537.742 259.952 
312 1 10 0.0 367.485 535.869 256.892 
313 1 20 -2.0 367.952 537.196 253.341 
314 1 10 0.0 368.798 534.563 250.723 
315 1 6 -1.0 370.570 536.456 247.937 
316 1 4 1.0 372.470 536.434 244.666 
317 1 20 -2.0 375.592 538.709 244.140 
318 1 15 0.0 373.086 541.546 243.272 
319 1 14 0.0 372.844 542.055 247.120 
320 1 2 1.0 376.510 543.194 246.888 
321 1 1 0.0 376.810 547.046 247.204 
322 1 2 1.0 374.494 547.814 244.130 
323 1 10 0.0 375.962 550.929 242.210 
324 1 7 -1.0 376.045 548.535 239.517 
325 1 3 0.0 377.297 544.888 239.955 
326 1 6 -1.0 380.132 543.586 237.732 
327 1 17 0.0 380.238 539.890 238.868 
328 1 10 0.0 376.652 538.783 237.968 
329 1 5 0.0 377.173 535.108 236.938 
330 1 14 0.0 373.518 534.517 235.994 
331 1 10 0.0 370.171 536.060 235.138 
332 1 6 -1.0 367.227 533.603 235.202 
333 1 16 0.0 363.776 534.696 233.939 
334 1 13 0.0 361.298 532.506 235.869 
335 1 17 0.0 358.469 534.098 233.820 
336 1 20 -2.0 358.520 535.476 230.239 
337 1 6 -1.0 359.166 539.266 230.240 
338 1 3 0.0 356.668 541.892 228.900 
339 1 15 0.0 358.868 542.501 225.780 
340 1 1 0.0 362.030 541.453 223.873 
341 1 6 -1.0 363.595 544.879 224.673 
342 1 2 1.0 362.849 544.383 228.421 
343 1 9 0.0 364.271 540.806 228.367 
344 1 9 0.0 367.545 542.048 226.742 
345 1 12 0.0 367.858 544.949 229.282 
346 1 8 0.0 367.224 542.476 232.190 
347 1 15 0.0 369.489 539.582 230.954 
348 1 2 1.0 372.184 542.170 229.969 
349 1 5 0.0 372.981 542.632 233.738 
350 1 6 -1.0 374.932 539.344 233.514 
351 1 2 1.0 378.729 539.282 232.981 
352 1 5 0.0 379.625 543.045 233.134 
353 1 7 -1.0 383.113 541.948 234.309 
354 1 2 1.0 383.481 540.154 230.888 
355 1 3 0.0 383.697 536.685 232.591 
356 1 18 0.0 381.342 533.811 231.505 
357 1 15 0.0 377.697 534.227 232.611 
358 1 13 0.0 374.354 532.485 231.853 
359 1 19 0.0 371.013 533.980 230.667 
360 1 5 0.0 368.108 531.480 231.093 
361 1 11 0.0 364.414 531.947 230.142 
362 1 9 0.0 361.875 529.560 231.771 
363 1 9 0.0 359.091 529.598 229.151 
364 1 15 0.0 355.586 528.172 229.376 
365 1 5 0.0 352.459 528.617 227.202 
366 1 17 0.0 350.551 529.106 230.503 
367 1 7 -1.0 352.868 532.065 231.474 
368 1 5 0.0 352.726 533.419 227.850 
369 1 7 -1.0 348.906 533.453 227.847 
370 1 12 0.0 348.750 535.068 231.334 
371 1 10 0.0 351.133 537.856 230.078 
372 1 15 0.0 349.279 538.211 226.700 
373 1 14 0.0 345.954 538.550 228.619 
374 1 11 0.0 347.484 541.177 230.992 
375 1 20 -2.0 348.968 543.189 228.038 
376 1 5 0.0 345.642 543.016 226.071 
377 1 3 0.0 343.804 544.126 229.298 
378 1 8 0.0 346.271 547.051 229.769 
379 1 10 0.0 345.761 548.016 226.050 
380 1 6 -1.0 341.910 547.800 226.199 
381 1 3 0.0 341.928 550.179 229.267 
382 1 11 0.0 344.013 552.695 227.262 
383 1 12 0.0 341.656 552.377 224.225 
384 1 8 0.0 338.605 552.949 226.538 
385 1 3 0.0 340.285 556.278 227.619 
386 1 5 0.0 341.987 557.658 224.429 
387 1 2 1.0 340.618 555.677 221.452 
388 1 17 0.0 342.757 553.232 219.435 
389 1 3 0.0 346.435 554.198 218.725 
390 1 6 -1.0 349.152 552.509 216.592 
391 1 15 0.0 351.207 552.145 219.850 
392 1 7 -1.0 348.557 549.748 221.252 
393 1 3 0.0 349.742 547.274 218.530 
394 1 6 -1.0 353.427 548.088 219.303 
395 1 4 1.0 353.020 546.811 222.921 
396 1 20 -2.0 351.593 543.468 221.637 
397 1 1 0.0 354.231 543.027 218.839 
398 1 6 -1.0 357.072 543.689 221.358 
399 1 14 0.0 355.752 540.731 223.465 
400 1 7 -1.0 354.990 538.441 220.466 
401 1 6 -1.0 358.666 538.904 219.342 
402 1 11 0.0 359.768 537.369 222.729 
403 1 10 0.0 357.274 534.469 222.261 
404 1 4 1.0 358.873 533.946 218.799 
405 1 14 0.0 362.369 533.992 220.458 
406 1 19 0.0 361.191 531.057 222.683 
407 1 8 0.0 359.252 528.966 220.064 
408 1 8 0.0 361.442 529.757 216.894 
409 1 11 0.0 364.291 527.288 216.105 
410 1 2 1.0 367.463 529.388 215.721 
411 1 19 0.0 370.517 531.038 217.302 
412 1 5 0.0 369.223 533.069 220.330 
413 1 16 0.0 371.849 535.779 219.600 
414 1 6 -1.0 370.711 536.016 215.922 
415 1 6 -1.0 367.063 536.519 217.071 
416 1 20 -2.0 368.285 539.380 219.377 
417 1 6 -1.0 370.306 540.916 216.463 
418 1 3 0.0 367.257 540.560 214.072 
419 1 9 0.0 365.104 542.501 216.626 
420 1 14 0.0 367.600 545.410 217.135 
421 1 2 1.0 368.697 545.706 213.441 
422 1 7 -1.0 372.265 544.433 214.100 
423 1 6 -1.0 374.685 542.346 211.997 
424 1 11 0.0 374.471 538.515 212.280 
425 1 18 0.0 376.613 537.457 215.326 
426 1 6 -1.0 379.424 534.839 215.191 
427 1 19 0.0 377.883 532.693 217.996 
428 1 6 -1.0 380.562 530.030 218.727 
429 1 3 0.0 378.467 527.668 221.023 
430 1 2 1.0 377.162 530.749 223.022 
431 1 19 0.0 373.501 529.530 223.151 
432 1 7 -1.0 371.435 526.282 223.438 
433 1 16 0.0 370.810 526.141 219.638 
434 1 19 0.0 374.534 526.775 218.831 
435 1 12 0.0 375.565 524.112 221.428 
436 1 17 0.0 373.041 521.356 220.446 
437 1 18 0.0 370.307 522.332 217.866 
438 1 4 1.0 368.895 518.735 217.840 
439 1 6 -1.0 368.275 518.913 221.636 
440 1 10 0.0 366.481 522.306 221.153 
441 1 5 0.0 364.337 520.779 218.338 
442 1 5 0.0 363.362 517.633 220.380 
443 1 5 0.0 362.271 519.905 223.305 
444 1 11 0.0 360.069 522.081 221.013 
445 1 8 0.0 358.473 518.913 219.473 
446 1 6 -1.0 357.834 517.722 223.089 
447 1 11 0.0 356.150 521.063 224.083 
448 1 8 0.0 353.848 520.635 221.029 
449 1 5 0.0 353.013 516.981 221.962 
450 1 15 0.0 352.299 518.007 225.625 
451 1 15 0.0 349.365 520.124 224.256 
452 1 15 0.0 347.988 517.496 221.787 
453 1 13 0.0 344.345 517.651 221.767 
454 1 15 0.0 341.343 520.095 222.779 
455 1 3 0.0 339.904 520.600 226.491 
456 1 4 1.0 339.951 518.098 229.480 
457 1 19 0.0 337.216 514.938 229.555 
458 1 20 -2.0 334.953 516.631 232.126 
459 1 2 1.0 335.385 513.047 233.784 
460 1 18 0.0 336.604 510.496 236.091 
461 1 15 0.0 338.772 508.403 238.392 
462 1 12 0.0 337.289 505.929 240.617 
463 1 2 1.0 333.948 507.292 241.786 
464 1 17 0.0 332.960 509.091 244.927 
465 1 2 1.0 333.115 512.290 243.223 
466 1 14 0.0 331.549 515.801 244.141 
467 1 7 -1.0 329.957 515.147 240.820 
468 1 18 0.0 327.073 512.302 241.044 
469 1 8 0.0 325.958 508.556 241.339 
470 1 11 0.0 324.147 505.463 239.645 
471 1 9 0.0 325.836 501.901 240.233 
472 1 8 0.0 325.878 499.735 243.480 
473 1 2 1.0 323.760 496.948 243.010 
474 1 2 1.0 323.150 493.933 245.623 
475 1 5 0.0 326.566 493.073 246.699 
476 1 3 0.0 326.201 490.767 249.754 
477 1 2 1.0 326.088 487.393 251.030 
478 1 9 0.0 325.596 485.075 254.270 
479 1 2 1.0 322.337 485.476 255.936 
480 1 7 -1.0 320.337 483.298 258.427 
481 1 14 0.0 320.408 481.117 261.335 
482 1 15 0.0 318.541 483.980 263.782 
483 1 5 0.0 317.311 482.100 267.248 
484 1 9 0.0 316.471 484.623 270.094 
485 1 7 -1.0 313.163 485.666 271.607 
486 1 8 0.0 311.134 484.735 274.571 
487 1 2 1.0 312.717 483.225 277.648 
488 1 15 0.0 313.578 479.655 276.549 
489 1 2 1.0 312.977 476.324 278.575 
490 1 2 1.0 315.952 474.944 280.285 
491 1 15 0.0 314.731 475.069 283.533 
492 1 2 1.0 314.421 471.456 282.830 
493 1 7 -1.0 311.745 469.961 280.423 
494 1 8 0.0 313.374 470.126 276.897 
495 1 2 1.0 314.153 466.343 276.865 
496 1 5 0.0 310.424 465.468 277.366 
497 1 7 -1.0 309.319 467.931 274.659 
498 1 8 0.0 312.067 466.417 272.376 
499 1 6 -1.0 310.773 462.846 273.016 
500 1 16 0.0 307.138 463.878 272.299 
501 1 3 0.0 308.292 465.734 269.081 
502 1 5 0.0 310.193 462.539 267.962 
503 1 8 0.0 307.219 460.170 268.596 
504 1 13 0.0 304.822 462.669 266.935 
505 1 17 0.0 307.232 462.931 263.940 
506 1 11 0.0 307.291 459.075 263.573 
507 1 14 0.0 303.456 458.987 263.904 
508 1 9 0.0 303.223 461.876 261.364 
509 1 12 0.0 305.589 460.034 258.934 
510 1 3 0.0 303.451 456.826 259.321 
511 1 12 0.0 300.272 458.956 258.736 
512 1 1 0.0 301.932 460.570 255.627 
513 1 12 0.0 303.002 457.111 254.296 
514 1 11 0.0 299.341 455.943 254.710 
515 1 5 0.0 298.323 459.026 252.572 
516 1 3 0.0 300.821 457.891 249.877 
517 1 2 1.0 298.165 455.370 248.766 
518 1 3 0.0 299.690 451.861 248.207 
519 1 7 -1.0 302.325 451.476 245.499 
520 1 18 0.0 300.813 449.135 242.855 
521 1 3 0.0 301.570 445.430 243.485 
522 1 20 -2.0 304.782 444.465 241.643 
523 1 8 0.0 303.486 443.446 238.192 
524 1 8 0.0 305.154 440.061 237.696 
525 1 14 0.0 307.236 439.944 234.496 
526 1 10 0.0 305.376 437.699 232.031 
527 1 18 0.0 307.969 436.371 229.475 
528 1 18 0.0 307.427 436.869 225.683 
529 1 7 -1.0 305.449 434.290 223.649 
530 1 8 0.0 307.648 432.123 221.277 
531 1 17 0.0 306.499 434.098 218.157 
532 1 19 0.0 307.350 437.591 219.618 
533 1 18 0.0 308.982 439.829 216.860 
534 1 11 0.0 310.665 442.220 219.401 
535 1 3 0.0 314.486 442.626 219.444 
536 1 8 0.0 315.466 442.300 223.172 
537 1 6 -1.0 311.874 441.165 224.200 
538 1 15 0.0 313.196 439.804 227.596 
539 1 15 0.0 315.029 443.104 228.463 
540 1 5 0.0 313.873 444.588 231.852 
541 1 5 0.0 315.972 447.771 231.128 
542 1 20 -2.0 312.970 450.179 231.485 
543 1 18 0.0 311.143 449.804 234.870 
544 1 5 0.0 307.330 449.243 234.559 
545 1 11 0.0 307.432 448.597 230.744 
546 1 4 1.0 305.710 445.273 229.772 
547 1 10 0.0 306.244 443.078 226.632 
548 1 3 0.0 302.576 443.686 225.549 
549 1 6 -1.0 303.207 447.474 225.795 
550 1 5 0.0 306.179 447.133 223.326 
551 1 8 0.0 304.116 444.867 220.964 
552 1 16 0.0 301.432 447.616 220.904 
553 1 19 0.0 304.180 450.195 220.079 
554 1 11 0.0 305.536 447.971 217.242 
555 1 5 0.0 302.034 447.624 215.653 
556 1 11 0.0 301.598 451.448 215.649 
557 1 11 0.0 304.893 451.671 213.638 
558 1 8 0.0 303.803 448.803 211.281 
559 1 8 0.0 300.404 450.573 210.693 
560 1 6 -1.0 302.132 453.969 210.081 
561 1 11 0.0 304.773 452.513 207.669 
562 1 15 0.0 302.008 450.553 205.834 
563 1 15 0.0 300.091 453.870 205.380 
564 1 17 0.0 303.289 455.516 203.967 
565 1 5 0.0 303.790 452.558 201.511 
566 1 12 0.0 300.215 452.919 200.120 
567 1 15 0.0 301.622 456.168 198.558 
568 1 4 1.0 304.911 454.467 197.321 
569 1 5 0.0 304.780 451.347 195.025 
570 1 4 1.0 307.882 449.148 195.708 
571 1 6 -1.0 309.300 446.429 198.118 
572 1 7 -1.0 308.153 443.384 200.235 
573 1 8 0.0 306.031 443.032 203.441 
574 1 6 -1.0 309.023 441.418 205.260 
575 1 7 -1.0 311.070 444.656 204.768 
576 1 11 0.0 308.340 446.761 206.535 
577 1 5 0.0 308.247 444.453 209.598 
578 1 6 -1.0 312.085 444.544 209.756 
579 1 3 0.0 312.042 448.424 209.589 
580 1 6 -1.0 309.260 448.627 212.247 
581 1 10 0.0 311.224 446.276 214.611 
582 1 8 0.0 314.350 448.486 214.171 
583 1 11 0.0 312.400 451.727 214.910 
584 1 8 0.0 311.029 450.009 218.070 
585 1 16 0.0 314.524 448.735 219.071 
586 1 8 0.0 316.133 452.201 218.501 
587 1 4 1.0 313.407 453.993 220.566 
588 1 14 0.0 313.637 451.255 223.268 
589 1 5 0.0 317.500 451.571 223.373 
590 1 17 0.0 317.288 455.408 223.681 
591 1 6 -1.0 314.528 455.504 226.403 
592 1 3 0.0 315.191 455.556 230.226 
593 1 10 0.0 311.492 455.670 231.417 
594 1 6 -1.0 308.283 453.959 230.117 
595 1 17 0.0 306.573 457.382 229.549 
596 1 11 0.0 309.542 458.671 227.444 
597 1 9 0.0 309.576 455.414 225.391 
598 1 3 0.0 305.829 455.836 224.555 
599 1 6 -1.0 306.365 459.546 223.692 
600 1 15 0.0 309.336 458.704 221.351 
601 1 10 0.0 307.297 455.988 219.514 
602 1 11 0.0 304.293 458.367 219.150 
603 1 3 0.0 306.711 461.041 217.770 
604 1 3 0.0 308.146 458.603 215.115 
605 1 10 0.0 304.503 457.642 214.177 
606 1 6 -1.0 303.539 461.359 213.871 
607 1 7 -1.0 306.657 462.006 211.681 
608 1 20 -2.0 305.811 458.985 209.377 
609 1 16 0.0 302.213 460.370 209.128 
610 1 5 0.0 303.818 463.747 208.144 
611 1 6 -1.0 305.965 462.247 205.330 
612 1 15 0.0 302.787 460.389 204.143 
613 1 3 0.0 300.994 463.815 203.719 
614 1 7 -1.0 298.982 466.887 202.613 
615 1 2 1.0 295.139 466.962 203.808 
616 1 12 0.0 293.609 465.997 207.289 
617 1 18 0.0 294.786 466.436 210.740 
618 1 9 0.0 298.166 468.477 212.591 
619 1 7 -1.0 300.484 466.666 215.246 
620 1 1 0.0 298.569 464.474 217.620 
621 1 2 1.0 296.197 463.096 214.816 
622 1 2 1.0 293.836 461.284 212.912 
623 1 15 0.0 291.825 459.634 215.948 
624 1 6 -1.0 288.128 460.393 216.195 
625 1 3 0.0 285.980 460.973 219.159 
626 1 15 0.0 287.618 461.724 222.845 
627 1 19 0.0 290.814 463.905 222.309 
628 1 15 0.0 293.458 464.406 225.003 
629 1 6 -1.0 294.883 467.887 224.392 
630 1 12 0.0 297.426 469.276 226.566 
631 1 6 -1.0 300.441 467.101 227.149 
632 1 8 0.0 300.616 463.709 225.244 
633 1 18 0.0 304.251 464.867 224.728 
634 1 18 0.0 306.672 465.925 227.487 
635 1 8 0.0 309.954 464.283 229.166 
636 1 18 0.0 313.538 464.344 230.415 
637 1 17 0.0 315.587 462.890 227.360 
638 1 8 0.0 313.858 462.758 224.033 
639 1 9 0.0 313.412 463.108 220.266 
640 1 7 -1.0 314.225 459.340 218.902 
641 1 20 -2.0 316.544 458.149 216.101 
642 1 18 0.0 316.726 455.554 213.153 
643 1 18 0.0 319.121 453.667 211.068 
644 1 6 -1.0 321.769 456.104 209.653 
645 1 15 0.0 323.070 457.356 206.472 
646 1 16 0.0 324.640 458.357 203.051 
647 1 10 0.0 321.312 456.791 201.295 
648 1 9 0.0 318.378 458.875 203.107 
649 1 15 0.0 315.569 456.806 204.965 
650 1 11 0.0 313.023 457.891 207.637 
651 1 3 0.0 311.786 461.692 207.570 
652 1 18 0.0 313.022 463.760 210.681 
653 1 3 0.0 311.959 467.142 211.396 
654 1 5 0.0 310.124 469.523 212.957 
655 1 10 0.0 309.763 472.617 210.550 
656 1 2 1.0 309.936 476.391 209.327 
657 1 6 -1.0 307.912 479.580 209.778 
658 1 2 1.0 306.095 481.661 207.238 
659 1 14 0.0 302.834 480.119 206.100 
660 1 18 0.0 301.344 477.879 203.137 
661 1 3 0.0 304.408 476.840 200.903 
662 1 2 1.0 308.275 476.252 200.701 
663 1 15 0.0 310.622 478.422 202.475 
664 1 19 0.0 314.345 477.236 202.888 
665 1 18 0.0 315.180 478.549 206.350 
666 1 14 0.0 315.526 482.481 207.191 
667 1 12 0.0 313.648 484.121 210.068 
668 1 4 1.0 310.737 486.025 211.695 
669 1 6 -1.0 307.279 485.775 212.986 
670 1 4 1.0 307.162 482.373 214.539 
671 1 8 0.0 308.976 480.684 217.627 
672 1 11 0.0 309.025 483.746 220.172 
673 1 1 0.0 311.718 484.397 222.882 
674 1 8 0.0 311.037 486.656 225.879 
675 1 4 1.0 308.099 488.702 225.940 
676 1 4 1.0 307.146 490.564 222.616 
677 1 5 0.0 306.500 492.784 220.020 
678 1 20 -2.0 303.993 495.448 219.948 
679 1 5 0.0 301.572 497.903 218.083 
680 1 8 0.0 302.981 499.856 215.548 
681 1 12 0.0 305.108 503.136 215.827 
682 1 6 -1.0 304.845 504.540 218.859 
683 1 18 0.0 308.199 506.132 220.107 
684 1 12 0.0 309.351 509.627 219.746 
685 1 18 0.0 308.719 512.814 222.145 
686 1 8 0.0 309.686 513.968 225.599 
687 1 5 0.0 309.363 512.918 229.370 
688 1 2 1.0 307.575 509.520 229.450 
689 1 2 1.0 309.049 507.674 226.219 
690 1 8 0.0 311.546 504.780 225.822 
691 1 16 0.0 315.409 503.995 225.846 
692 1 8 0.0 316.810 506.349 228.113 
693 1 18 0.0 319.240 506.582 230.935 
694 1 18 0.0 323.075 507.221 230.563 
695 1 15 0.0 322.566 509.310 227.226 
696 1 5 0.0 323.339 512.735 226.314 
697 1 18 0.0 323.888 514.353 229.700 
698 1 19 0.0 321.318 515.494 232.053 
699 1 2 1.0 319.918 519.088 232.080 
700 1 11 0.0 317.922 522.046 230.443 
701 1 11 0.0 319.901 525.093 229.484 
702 1 7 -1.0 323.193 526.713 228.866 
703 1 8 0.0 324.015 529.942 230.251 
704 1 7 -1.0 325.744 532.097 232.680 
705 1 2 1.0 329.701 531.727 232.670 
706 1 15 0.0 331.202 533.362 235.864 
707 1 8 0.0 334.482 534.765 237.484 
708 1 18 0.0 336.484 537.577 235.918 
709 1 11 0.0 338.887 535.890 233.382 
710 1 18 0.0 340.483 534.390 230.434 
711 1 2 1.0 340.834 534.218 226.644 
712 1 18 0.0 342.659 534.209 223.532 
713 1 5 0.0 341.293 534.825 219.740 
714 1 2 1.0 338.405 537.265 218.979 
715 1 8 0.0 336.119 539.711 220.847 
716 1 10 0.0 335.447 537.600 223.906 
717 1 18 0.0 336.379 539.796 226.717 
718 1 2 1.0 334.818 542.628 225.818 
719 1 2 1.0 332.409 545.137 228.143 
720 1 15 0.0 332.185 549.094 227.184 
721 1 6 -1.0 331.847 551.629 230.432 
722 1 16 0.0 328.877 553.865 230.219 
723 1 9 0.0 326.504 556.705 228.994 
724 1 2 1.0 324.985 556.146 225.790 
725 1 2 1.0 321.740 556.458 223.710 
726 1 18 0.0 321.279 559.428 221.599 
727 1 15 0.0 324.347 559.224 220.024 
728 1 18 0.0 327.201 560.501 217.474 
729 1 8 0.0 327.885 558.624 214.339 
730 1 3 0.0 328.606 557.705 210.573 
731 1 3 0.0 332.219 557.715 210.561 
732 1 6 -1.0 335.645 555.777 210.383 
733 1 3 0.0 335.069 552.500 208.128 
734 1 15 0.0 331.937 550.569 208.424 
735 1 15 0.0 329.978 548.450 210.805 
736 1 15 0.0 328.443 551.144 213.121 
737 1 2 1.0 331.882 553.163 213.689 
738 1 2 1.0 333.696 554.593 216.492 
739 1 15 0.0 335.709 557.586 215.917 
740 1 15 0.0 337.664 560.910 215.618 
741 1 11 0.0 338.884 563.841 213.907 
742 1 6 -1.0 339.759 565.682 210.633 
743 1 3 0.0 340.552 569.654 209.821 
744 1 2 1.0 342.628 570.300 212.979 
745 1 5 0.0 346.225 570.907 214.744 
746 1 6 -1.0 349.873 571.332 213.399 
747 1 15 0.0 351.705 572.225 216.452 
748 1 3 0.0 351.170 573.142 220.023 
749 1 3 0.0 353.738 574.854 222.041 
750 1 12 0.0 355.919 577.285 219.754 
751 1 12 0.0 357.140 580.572 221.480 
752 1 11 0.0 354.692 583.090 222.447 
753 1 11 0.0 356.416 586.734 222.700 
754 1 6 -1.0 359.097 588.349 224.809 
755 1 4 1.0 358.575 592.175 225.650 
756 1 6 -1.0 358.611 594.616 223.244 
757 1 6 -1.0 356.962 598.165 222.438 
758 1 16 0.0 356.207 602.014 223.320 
759 1 3 0.0 357.742 605.347 222.492 
760 1 7 -1.0 358.851 607.025 219.155 
761 1 15 0.0 356.742 610.226 220.191 
762 1 12 0.0 357.639 613.607 220.899 
763 1 15 0.0 354.234 614.756 219.871 
764 1 20 -2.0 355.401 618.318 218.636 
765 1 6 -1.0 359.074 618.683 218.692 
766 1 5 0.0 360.319 622.223 218.333 
767 1 14 0.0 363.112 623.931 220.107 
768 1 14 0.0 363.245 626.084 223.319 
769 1 19 0.0 362.426 627.537 226.262 
770 1 5 0.0 364.476 629.258 228.927 
771 1 5 0.0 368.088 630.217 229.383 
772 1 10 0.0 371.507 631.946 229.778 
773 1 8 0.0 373.667 631.840 226.776 
774 1 15 0.0 371.528 631.807 223.815 
775 1 18 0.0 371.663 635.425 222.233 
776 1 6 -1.0 368.310 634.046 220.661 
777 1 11 0.0 367.791 633.080 217.002 
778 1 11 0.0 369.779 635.555 214.749 
779 1 6 -1.0 368.988 635.788 211.003 
780 1 15 0.0 370.511 638.747 209.527 